% Model:              Untitled.mph
% Version:            COMSOL 5.5.0.292
% Date:               Jan 3 2022, 13:26
% Dimension:          3
% Nodes:              2696
% Expressions:        0
% Description:        
% Length unit:        m
% X                       Y                        Z
1.15594516895147          -0.0574021726343525      0.047656630062816195
1.15594516895147          -0.0579903602518617      0.047656630062816195
1.1564333310835435        -0.05734548664270895     0.04645184723737852
1.157031963596019         -0.05741730039705498     0.04755083432347394
1.1571797291809756        -0.05800541394403471     0.047533290452011795
1.1576167091677585        -0.057343267386692515    0.04587587755019298
1.1586515519151614        -0.05743572263657294     0.04731538230903993
1.1561866520264361        -0.058803306189268045    0.046406453644297976
1.1553962080627642        -0.05731359989337675     0.046228540574652525
1.1552915618592334        -0.058574399567476815    0.046853778649012474
1.1547907478366073        -0.05799019837068018     0.04774587846290784
1.1548107320560432        -0.05738511153356677     0.04774435950973331
1.157513083352117         -0.05914997520743066     0.04564909789689213
1.1590728669403645        -0.05808604274558938     0.0472388053951735
1.1610392011127852        -0.05745565890967868     0.04679387897476537
1.1593529796895454        -0.057344637553857915    0.04493263137621813
1.1562974741271856        -0.057282610473832235    0.04498831649115866
1.1576174460401636        -0.05727995544712945     0.04372557618312297
1.154959322979764         -0.059248670784103175    0.0457869565365205
1.1557295236014284        -0.059759477948150924    0.04478522562956763
1.1549725028332272        -0.05724577640308831     0.04469189170859732
1.1539135748381786        -0.057266122444392664    0.04585224472525873
1.1538295253990187        -0.05891614256226166     0.04645087231312135
1.1530426875919106        -0.05798504703861335     0.047877039349333406
1.153095920798319         -0.05735934754642444     0.047873157126055985
1.1619674758000798        -0.05831799525306813     0.04653280596169823
1.160599916948961         -0.058034656020044054    0.04453524089880834
1.1569716762013136        -0.06040409282543471     0.04343915191741212
1.1594672590784614        -0.05970721731591368     0.04430343751223618
1.161541812759446         -0.05736497510846878     0.04385940615806224
1.1644865833893359        -0.05747547731993786     0.045649366500719275
1.1645749619818413        -0.05862047393323266     0.043179097892076954
1.1662658088694002        -0.058781045548741605    0.044860822182172175
1.1691558200869963        -0.05751737219338709     0.04325010559589445
1.1669230458821322        -0.05896033504109607     0.041265432327641675
1.1718765574008432        -0.05965091348837078     0.041291392841923305
1.159733893821487         -0.057317165681093685    0.04201306205289955
1.1557138661380915        -0.057231831368635314    0.042993279715398375
1.157406149213291         -0.05727355003507693     0.041506541378522305
1.1554901463565495        -0.06054263430727526     0.04342637652601416
1.1560049568420818        -0.06145940907451636     0.041695981102585634
1.1745178731920451        -0.06085309577549936     -0.008950687967182208
1.1745106095209348        -0.06353488373661047     -0.008955966196955429
1.169711759174152         -0.06046766328919017     -0.0065952345312238715
1.1699662539103954        -0.061049277022317       -0.011363167939705692
1.1699635052201367        -0.06337053050258587     -0.011364166285782603
1.1668794568770815        -0.060601186673599684    -0.00832803222339544
1.167050115388043         -0.06394439312660706     -0.007850285600976442
1.16609568829503          -0.06331779602666619     -0.012327215734330701
1.16609568829503          -0.061086269320133606    -0.012327215734330701
1.1534188222835648        -0.060112169513718255    0.044467817899214696
1.1534239485095164        -0.05718772946372594     0.043484126515701826
1.151723075951931         -0.05719400479717032     0.045183723289188016
1.1515402228337668        -0.059365939047739374    0.04593240823921628
1.1504014692794056        -0.05796757962344945     0.04806616914082751
1.1504916482940806        -0.057320187929717735    0.04805998452628202
1.1800890021888402        -0.0581185547811008      0.0305247521737314
1.1800890021888402        -0.0610454297689235      0.0305247521737314
1.1754874571217337        -0.05813464231385916     0.02890412342380893
1.1820920943927506        -0.058432095588941836    0.024911746430432237
1.1777657385387           -0.05789817613014352     0.03478831620234835
1.177068499006796         -0.06053201384706672     0.03579798477034519
1.17358149674791          -0.06244911510337649     0.030828622033053317
1.1742229858664905        -0.06401341715232445     -0.0034122251629246556
1.1786558920035748        -0.06364059624245495     -0.004860161531574189
1.1786604561120793        -0.06048846191659053     -0.004853684951816479
1.1702049972420425        -0.06414229776369636     -0.005196156666193039
1.172384860453952         -0.060171349992440684    -0.002936131111181627
1.1753166008065887        -0.059977811373093756    2.513125040208031E-4
1.1769313417172464        -0.06394405086731418     -5.487718265521532E-4
1.18128738708224          -0.06356713413193281     1.21887490598551E-4
1.18128738708224          -0.0601072997576851      1.21887490598551E-4
1.1779957715507197        -0.06388228970243955     0.003765554921171822
1.1830186413125876        -0.06329113891456406     0.006842727036648098
1.1830001305019038        -0.059673871790264524    0.006735571226980959
1.1820845653841907        -0.061647838687382675    0.0249388304800888
1.1743738789669493        -0.05833369774299735     0.02492537002432394
1.1767481076182262        -0.058652639740410156    0.02009933502246267
1.1835417956079324        -0.059020796940151346    0.0161158210649583
1.183533719029334         -0.06250688189769214     0.01625503813339686
1.1757670877780984        -0.059615547958510096    0.005578526130336241
1.1630042125974418        -0.0605898932659754      0.04187580181440756
1.1587705873547833        -0.06150598136138633     0.04107580430474466
1.1703828849461977        -0.05773893771747608     0.03568292189703395
1.1740734049800716        -0.05766222371154445     0.039311551446524554
1.1637925844563943        -0.05742588077330725     0.04042854503150601
1.1667493142748744        -0.061137243325748825    0.03962263630706955
1.16951225580216          -0.062348351758990006    0.03464847709827608
1.1586865951623977        -0.05739121712948874     0.03849606536944907
1.154269885973227         -0.057251704990900085    0.03978458677925015
1.1537772128370374        -0.06174159629273486     0.041542629342556994
1.1558040983715365        -0.06285287732785574     0.03892833563086295
1.1631721858220787        -0.0640899231244752      -0.007596063490167568
1.1658244165982488        -0.06025865000635891     -0.00546942433057983
1.1676336353495498        -0.06003578134098783     -0.002537179758042889
1.165911026987143         -0.064556070362521       -0.0026707893205740077
1.162679831662279         -0.06049172418920076     -0.008273756842309611
1.1616525117184735        -0.06330351109294495     -0.012933710849365303
1.1616526162177983        -0.06106426264712382     -0.012933696925000831
1.1508347191749673        -0.061382784840532306    0.042598597465233486
1.150699108885788         -0.05713202443924918     0.04165823176237643
1.1482975090773173        -0.05709474899607425     0.04429440333281427
1.1481707853253467        -0.05999005154812135     0.04521532657431462
1.1463948925693201        -0.05792411645406058     0.04833244641836234
1.1465473803855752        -0.05726048299725084     0.048322801021930394
1.1743521899344063        -0.06330271958411597     0.024790274196927434
1.169679392572687         -0.0637120757063464      0.02827732862163153
1.169266662215284         -0.05807663836455251     0.028604697503324037
1.168675880140153         -0.058492293881598455    0.021021514500600226
1.1711445074376923        -0.06450396059697498     0.0022502416245197376
1.1685578486807051        -0.059623891609013546    0.003459187078504582
1.1751496314675682        -0.05906191567203837     0.013458995242184723
1.1759857372722338        -0.06413743060756352     0.009984324790613983
1.175407401457006         -0.06375096054673152     0.018960558875725973
1.1680855542940347        -0.05923120137977355     0.009209007987587696
1.1662772649391713        -0.058826762937894184    0.014856362692546476
1.1646036850938313        -0.06493541331334196     0.002616845730458854
1.1612261828698385        -0.06338638447267195     0.03586746150101615
1.1628734013382431        -0.05772019819625189     0.03366527877635837
1.1649364113871787        -0.0642885010592569      0.029734721966526018
1.154946588281092         -0.05761439515577986     0.033317778217601034
1.1507060174119774        -0.057294013086794916    0.037472768090641075
1.151328708689355         -0.06341127647069333     0.03843857180698663
1.1462256389680114        -0.06293376209141707     0.04017154835706313
1.1541279787875833        -0.06441763838694381     0.03480406522767349
1.1634915234048326        -0.059358558886038595    0.006261370261473005
1.1284447703380283        -0.05697161073270979     0.04921863477624999
1.128138288147656         -0.05760464458148994     0.04922938377519546
1.127594634871401         -0.05804509345083749     0.046426001700083035
1.134325673147023         -0.0577238603554595      0.048983415090519365
1.1231509686096381        -0.05687834815420228     0.04938447011508332
1.123053096538344         -0.05750900078864532     0.049387138853094814
1.11463698143391          -0.05846886223035343     0.04819939360458389
1.1139201440342583        -0.05735867181559768     0.0495697609456901
1.1159478764171895        -0.05738847711234786     0.04954037959749816
1.1146887454985424        -0.05653959275545052     0.04777193368265382
1.113897012317434         -0.05669148662882345     0.04957005571089145
1.1158775108242152        -0.05673373258284592     0.04954148735588432
1.1293074556981375        -0.0607073561177807      0.04501154089530021
1.1250287565132084        -0.060079521378236474    0.046004060431167046
1.1574863089427438        -0.0642290497116679      -0.007369144331888415
1.1616551113722275        -0.05983394637946509     -0.0015158195190142687
1.1609019597977723        -0.0648152883217625      -0.0016144741382467282
1.1583769909822526        -0.06038530481556517     -0.008290172080124288
1.1550875462093986        -0.06325317448462384     -0.013790849025632327
1.1550876685528182        -0.06102872986070815     -0.013790833644690434
1.1431752054001243        -0.06079066574529279     0.04431158601839963
1.146248897934679         -0.05712001152902693     0.03915006644639857
1.1429808469373086        -0.056964632478329905    0.04326752833437924
1.1410188488167101        -0.057174692460769484    0.048650458201952275
1.140740047435362         -0.05783962526966907     0.048665642073942916
1.134695541174155         -0.05707349729514913     0.04896683168391574
1.1377227094621958        -0.05686593514506058     0.04404941994923639
1.1359236384730054        -0.06171404969993562     0.04319110376823042
1.1659034941137179        -0.06503102144617605     0.02131222311236472
1.1606923479585616        -0.05815436953130665     0.025467893132343912
1.162477355286025         -0.05857717704357082     0.018341702612393
1.1656091862999922        -0.0652068227170272      0.010808992887978444
1.1617164022718174        -0.058923891140179555    0.01240216378987111
1.1596594056092795        -0.06523827591634329     0.004271206285518716
1.1559359411725196        -0.0654954551360388      0.027946204397257125
1.1503061730583164        -0.05803022261358089     0.02525872966813486
1.147122011462486         -0.05751756022709188     0.03273037483522721
1.140161147643365         -0.06399195811274301     0.03809773086900484
1.1471828296151552        -0.0653465671627505      0.03230538150312387
1.1536755489716564        -0.06509059191071667     2.893207068353103E-4
1.1539926929068771        -0.05919824093666956     0.0063875144756457706
1.1188843624092253        -0.056795692145988994    0.04948650439820693
1.1189576803608254        -0.05743693719114111     0.04948502854291818
1.1173874820613583        -0.05651265877813455     0.04660022344838658
1.11726653615341          -0.05904190352119085     0.04746564621387547
1.1207872900985305        -0.05960935076984335     0.046697194090245926
1.1133650435496816        -0.05648742527613932     0.047553780943718434
1.1132681924613266        -0.05812776117651299     0.04862210637198154
1.11258655233646          -0.0566629681563381      0.049585618284201
1.11258655233646          -0.057340530779192905    0.049585618284201
1.1126489244718791        -0.05654112492849275     0.04834010513907888
1.1121558707822525        -0.058187493526992734    0.04854248863545812
1.112719418004845         -0.05913383647752571     0.04734132493247809
1.111196273435986         -0.05732216454936257     0.049600716780859644
1.1112039753965448        -0.0566326558242705      0.04960062519542519
1.131336126090522         -0.05671788298842083     0.042538300366478106
1.1296731482330142        -0.06303284370083627     0.04087439816309005
1.125316243932128         -0.05659075385477586     0.043934962167236795
1.1211115937590213        -0.05653012361234667     0.04530667901535824
1.1151108158088867        -0.06022635216616879     0.045866793984095856
1.1143434365447735        -0.05639071990243895     0.04585820929344396
1.1153682425954485        -0.056353391831297645    0.04400610615581812
1.1176880953557058        -0.05640416177468836     0.04324649104322219
1.112173650975528         -0.05638872607730747     0.046695931938923615
1.1255610055130787        -0.06256303993505119     0.04193567270275445
1.121971809199897         -0.062026896497566       0.042993238310135476
1.1459150429847793        -0.06314763688888371     -0.014910784412676237
1.1493066585975638        -0.06438326031067526     -0.006720239932912361
1.1509323477453866        -0.0598380810119485      -0.004530204457639376
1.1459148928235932        -0.06097924753362547     -0.014910801525108399
1.1383052556235147        -0.05712160606109281     0.03628764151546863
1.1330813711744303        -0.0644909862159264      0.036887281008180374
1.154902399701419         -0.06594989340465811     0.01782216908117205
1.1553023603005135        -0.05852231083668227     0.01782859601546283
1.1550570236003908        -0.06564227763981142     0.009320174913182254
1.1460733069816857        -0.05852022625131247     0.015709819011216333
1.1410489463855826        -0.05786981323619298     0.02509562522263656
1.1449818975038721        -0.06618269394781706     0.023857491515851002
1.1363210850203926        -0.06586548065742134     0.029832862647713017
1.1457928680164164        -0.06532416733961643     0.002945959770948579
1.135092070606215         -0.06297902009038966     -0.01611622022575453
1.1396479379472955        -0.064383796548455       -0.0065333538009238155
1.1424429871245447        -0.05906792604876569     0.004999178432908884
1.1190555358586172        -0.05874852168159244     0.042812327371492466
1.118199544711416         -0.06115943209225843     0.0444730890755149
1.118308932733028         -0.06327988573494239     0.040508589870761114
1.1121437046155298        -0.05813200035713837     0.04564097264130105
1.1122070411765934        -0.060686043282998356    0.04521209775810825
1.1103426561049248        -0.05639847945937871     0.04741778253004145
1.110231054889808         -0.05891768533133803     0.04761122002099879
1.1090582962236262        -0.05729355582493205     0.04962393432655437
1.1090813395387653        -0.05658616445136472     0.04962363709638427
1.1286709077041515        -0.05687490252702627     0.03671173651823583
1.1265648600008202        -0.06446556637749658     0.03711583385898844
1.1222697754705961        -0.0639184555948056      0.03884452565623131
1.1280087842164197        -0.06560922737820492     0.03182699964523524
1.12040054715757          -0.05653649466723983     0.039743748038788086
1.1144885151683825        -0.06236684553555869     0.04243851786495333
1.1141785129569794        -0.05877996935088416     0.042571225833305255
1.11106243301352          -0.06204610717527001     0.04303911627787388
1.1154662064890142        -0.05638265183268591     0.0408844706372582
1.112855368351084         -0.056286067239797       0.04354014461146617
1.1099147339251236        -0.056224951676578205    0.04447128580722957
1.1195593446637857        -0.06012921478467433     0.03831804061176063
1.1186278501763602        -0.0646128082552029      0.036731237421705455
1.1386601500427203        -0.05964764806743235     -0.005659916413075025
1.1350911373420205        -0.0609242079094852      -0.01611631862623465
1.1311897385700773        -0.05758659830783818     0.025833266606600055
1.1420803647028313        -0.06599847186556798     0.013408853653834697
1.1363757255509062        -0.058374618358116775    0.015395237035266287
1.135788731121698         -0.0662435843359172      0.022319199274716324
1.126075474599948         -0.06164606461610896     0.026377796606381475
1.1283675539564377        -0.06618379408026717     0.02467810130154684
1.12859820995445          -0.06430400262139925     -0.0066657683958193685
1.1235834377167573        -0.06280933809847872     -0.0172607508759504
1.1342737700964638        -0.06533125955890698     0.003574949922532451
1.1325683830343636        -0.058898891374926765    0.004623527877639883
1.114763872043792         -0.060289046147417855    0.03987416045097294
1.114961562806247         -0.06432218604970757     0.037748292816345674
1.1104386372373123        -0.05963805698629821     0.041685282852848116
1.1093613573797594        -0.06092967952070682     0.04485242314717894
1.1110414154058958        -0.06344989976667109     0.04016475062416604
1.1088015918856415        -0.06244193906833212     0.04231755556192941
1.1078470411250403        -0.05624964624841845     0.046312831891658815
1.1071548217814886        -0.0592962937058612      0.04710761999170579
1.1057991486592482        -0.057249295078196746    0.04965932587819273
1.105801039750339         -0.0565146519024544      0.04965915275895022
1.12209023538023          -0.05700880694731098     0.03153766849045997
1.1214236691247912        -0.0652638379970481      0.033915237071841506
1.1215466152915894        -0.0659995426901404      0.028107832543818122
1.1153093366369515        -0.056606641858037175    0.03562537085394456
1.1107848031598446        -0.05629888829936299     0.039855783810593404
1.1074357053733608        -0.056150063926859436    0.0426676661581011
1.1055961734342388        -0.0615735742851735      0.04384490858609707
1.1127346128257298        -0.06110598684049816     0.03305931586172779
1.1159138310835732        -0.06553632465995714     0.03238833210410909
1.110619649837015         -0.06489686357493599     0.03574699423666492
1.1212479081676716        -0.057509024015350595    0.023217698554946598
1.1282590134321357        -0.059481904920511884    -0.006411757014543792
1.1235817666250245        -0.06087546481664788     -0.017260906677926846
1.125767803429456         -0.0581599643420717      0.015167961588090244
1.12817895158184          -0.06602016718279517     0.014566754205314981
1.1213139395101717        -0.06619019107105115     0.021703739030548456
1.112298609838392         -0.06271166507118044     -0.018246121051976403
1.1122970433196349        -0.06083232512439066     -0.018246248573187435
1.1172829845352017        -0.06413937382738201     -0.007697514000843759
1.1223430425982244        -0.06528630752492189     0.003556965755131463
1.1206523434693292        -0.05866023898233684     0.004804635509913397
1.109527808793804         -0.060736263625027015    0.03766332347861757
1.1063758193319468        -0.059816675486382635    0.04098286737588719
1.106409659561256         -0.06371635854240404     0.03952294099223097
1.1034063522122297        -0.05968072691321952     0.046583383155037406
1.1031982896762191        -0.056047831529952595    0.044409309533810476
1.1013207452705691        -0.0571877755230297      0.049707957168815306
1.1011308249977296        -0.05641423700842145     0.0497096801352084
1.10140523833044          -0.06238573163796917     0.04242030013347215
1.0983655458257615        -0.06024712790105568     0.045790536571124134
1.113609811270853         -0.057051236470408356    0.027381226300402312
1.1145216971143448        -0.06614854554480698     0.02454030573340372
1.1091668922969822        -0.05659414639547036     0.03314900429126119
1.1050042739282253        -0.05620001869634038     0.038633726792221254
1.1060426603378815        -0.0614965598090507      0.03176827435314626
1.1092947341841568        -0.06585359434813472     0.02986921221364346
1.1061023228637918        -0.06518271237215034     0.0345216601511974
1.1138526372823128        -0.05785459556606777     0.015861129746876937
1.113527202861768         -0.05920746627101277     -0.0063781523702889495
1.101977046649465         -0.060792481510581774    -0.019029048134708484
1.1019780131503316        -0.06268314406237926     -0.01902898012460954
1.105702741248431         -0.05960319543126575     -0.011575146556926253
1.106314845181462         -0.06381793787642161     -0.010077835004815896
1.115431467223227         -0.0659620255472701      0.013878160453702817
1.110517148722098         -0.06512846030089793     0.001733956339627406
1.105790200123383         -0.06616347531844784     0.021714440565105405
1.110873863579052         -0.05847956613533874     0.004930006557203407
1.0879618793685255        -0.06265030719683794     -0.0199116739391792
1.0879617703460678        -0.06073412528898838     -0.01991168001605278
1.0841126708997           -0.0626345540941721      -0.0201177692471104
1.0862737770417037        -0.06294783253146577     -0.01663070147386271
1.0841126708997           -0.060716366723226       -0.0201177692471104
1.083304049210045         -0.06295965152607491     -0.016681522750412067
1.0868397660056064        -0.06002401475427949     -0.016149533899012188
1.0841425920965193        -0.059772246279002295    -0.01484745731582724
1.0813594027672195        -0.05984618249766938     -0.015525930662455084
1.0936519994049612        -0.06266898795408701     -0.019578361689039148
1.0936515922259697        -0.060758786651361835    -0.01957838682420803
1.0903649589613806        -0.06313605952295984     -0.015017391769858057
1.0909407265735598        -0.05990972964988314     -0.01512660679558835
1.0965633858359378        -0.06344838209411212     -0.012750334425383515
1.097682675758227         -0.05963580195034593     -0.012710644544022015
1.0804607642251782        -0.06329379801391151     -0.014559138391727263
1.0803567496014905        -0.06069998595679049     -0.020313459118193457
1.0803567350670131        -0.06262254249615293     -0.02031345988499834
1.1024195876348084        -0.060024930317285584    0.038199776022011356
1.0957242270100092        -0.05711102740694056     0.04976873509223229
1.0951312945903229        -0.05628931647047188     0.049774671577190115
1.0974323917517095        -0.05588366232256911     0.043342077149686076
1.0940214336955205        -0.058684478353653306    0.04565751835776028
1.1010159724932729        -0.06463363499406478     0.03679905558186969
1.1006698285441225        -0.05607565876897529     0.03893123831863666
1.0960757395801919        -0.06330472486804449     0.040514696334508146
1.0920561897565566        -0.060876335327114256    0.044861768616371145
1.0887338172279941        -0.057017907058829184    0.049844669298454755
1.1053947377388453        -0.05707661708865589     0.024491365363036748
1.1022201489229069        -0.056447463870424264    0.032714832882161246
1.1023784941835213        -0.06583177232619801     0.03017247931265711
1.086978429536691         -0.05927916291909825     -0.010973079647970948
1.0760897375983576        -0.05970653742761927     -0.015048441020112137
1.07896969490704          -0.059211409445515756    -0.01113985071038244
1.0954803498110504        -0.0654582540701639      0.033097585904756255
1.101794236672747         -0.05873561908885101     -0.002027382515119075
1.1022900575466423        -0.05789751972154126     0.01240432374344143
1.0958587103660777        -0.06615574253851914     0.02357649837589661
1.0991699906359036        -0.06480348250511138     -0.002244331268306504
1.092965253107681         -0.05893106878955907     -0.0063539863281587994
1.1011547453464483        -0.06584919175960835     0.011795948189772176
1.0848154035621755        -0.06376394871275652     -0.011464771135117832
1.082370101862688         -0.059195322564740714    -0.0106682291909205
1.090740248738218         -0.06444520593201558     -0.006160032010097937
1.0763161807829498        -0.061531209581223406    -0.011651279567150381
1.0784145161037815        -0.06406614089792623     -0.009924513872988035
1.0751261344343797        -0.06159231233151431     -0.016575480156416897
1.0749301822133537        -0.060681252786210914    -0.0206040220455635
1.0753309762893866        -0.06333460659788681     -0.014647742233364496
1.0749301494561678        -0.06261191100970737     -0.020604023827685586
1.0899751533302           -0.055695207935144514    0.04211189685207955
1.0876213473037475        -0.056142844978648625    0.04985645585130378
1.08630874472263          -0.05767856563079139     0.046103017219996344
1.0942015557368134        -0.05605383416393671     0.035906494499476964
1.0841004298721981        -0.061638775995223896    0.043653610857432384
1.0891922656046484        -0.06427946153993153     0.0379485488184227
1.0816723384407172        -0.055469869863055445    0.04245316111755254
1.0800019371269978        -0.05690901825752386     0.04993955794678036
1.0782246939017117        -0.05596712870719174     0.04995972556061269
1.0930076502106378        -0.05684749780477959     0.024384087395744526
1.067458667948594         -0.06260419134711431     -0.021019227012757415
1.0674587075471909        -0.06066449321529662     -0.021019224766016434
1.084952611750747         -0.05861957960048563     -0.003020852299118185
1.0793625950545167        -0.05878192371165628     -0.0062270298316089165
1.0698274712940592        -0.05959610086309336     -0.014765996110251381
1.0733730648583648        -0.058887192974889174    -0.00827178097928075
1.0874308639017367        -0.06598804186135612     0.028363885540276856
1.0898997905009362        -0.05812241962609364     0.0064990645652440535
1.0890627169990161        -0.06606667527584091     0.016898831264047613
1.090294079739178         -0.06539982214867138     0.004888625285178644
1.0811711675731566        -0.06487986745099618     -0.0021782822540207017
1.0727900156903627        -0.06447645964995442     -0.007052531146414161
1.069706727696705         -0.06336861516824882     -0.014859365758469703
1.0743924829939617        -0.062226251089977605    0.042630498061012365
1.0802069817736686        -0.0651219812802538      0.03482736039017706
1.0827448828402217        -0.05596314049677317     0.032779423560868215
1.072685644044636         -0.05530780708028122     0.040014151266332385
1.0691269627678714        -0.05674864502845568     0.050057633753324185
1.0666319595755471        -0.05565735943986177     0.0500861916917226
1.0796866214900613        -0.05718016944733935     0.01773689449024961
1.0586278176475632        -0.06260119934772031     -0.02153260825242097
1.0586278473627626        -0.06065729307293097     -0.021532606483582552
1.0615668447295226        -0.06343882380321382     -0.015139503078114501
1.062268141728093         -0.05942487568409923     -0.014065627786648691
1.0754188116779155        -0.058210691589663466    0.002360376671868939
1.06554417943406          -0.05860682344483298     -0.005548293316242299
1.0422240973722647        -0.06262378812378648     -0.02255136184484864
1.042224101573665         -0.060676845341446226    -0.022551361573096843
1.0454916665491398        -0.0633966487133251      -0.017004658567130515
1.0497694972251785        -0.06260822087747321     -0.022072235369237803
1.0783517623806196        -0.06616091845572106     0.023288305937624588
1.0785391124258195        -0.06577991397836036     0.01072390185908782
1.0702563290997382        -0.06533301681730247     0.003400564269702914
1.0627148812139886        -0.06465871015325611     -0.005914150198961525
1.06932814907971          -0.06564025220860364     0.0318109919476658
1.0642386763248266        -0.059158084931849625    0.040165479955741414
1.0626414129371071        -0.06265846669236302     0.04178518331356556
1.036720563313202         -0.06069220252084914     -0.022912138727624258
1.036720563516531         -0.06263942934851031     -0.022912138713686685
1.0351487982682768        -0.06003214106179906     -0.01956012106003924
1.03291198730149          -0.06070524577904        -0.0231673908276694
1.0346103099373845        -0.06313530921678145     -0.019686590708541757
1.03291198730149          -0.0626520399704415      -0.0231673908276694
1.0391655955928085        -0.0633957611396076      -0.017660447674531916
1.0567636013203021        -0.056486497115176275    0.05019190463353163
1.0604715744776843        -0.05502633963544848     0.039114143397607395
1.054147080277075         -0.0552775660812994      0.05022107899944097
1.0535490448248375        -0.059349076128978474    -0.014073834806592316
1.049769512293938         -0.060662799274259153    -0.02207223443089845
1.053559446802652         -0.06392898146349266     -0.01297033317529762
1.0390984987564498        -0.05979970123919701     -0.018016452357929466
1.0451175640800303        -0.059565883628841645    -0.016177830369098506
1.0673236394396313        -0.0561103671718725      0.026977541958333726