% Model:              Untitled.mph
% Version:            COMSOL 5.5.0.292
% Date:               Jan 3 2022, 13:47
% Dimension:          3
% Nodes:              22177
% Expressions:        4
% Description:        表面
% X                       Y                        Z                        Color                    DeformX                  DeformY                  DeformZ
-0.04851473881663425      -0.06529392956856216     0.010108330297943599     8.865127171616568E9      0.010274092115540964     -0.04743002385151495     -0.009483498986571906
-0.048514721764346014     -0.06353093245825568     0.010108366803403778     1.367815057245891E10     0.00853218987697528      -0.0473520814214273      -0.007820427073345865
-0.0487596548365826       -0.06529260895154608     0.009293285712236105     7.629341864100936E9      0.010128490460490476     -0.04672411190341942     -0.009434536313332756
-0.04875965131906641      -0.06353012398785107     0.009293312779510773     1.2224270955853918E10    0.008403121487074798     -0.046663358029825054    -0.007777526871552559
-0.04851471445622633      -0.061767935347949186    0.010108382448604845     1.7384850430304733E10    0.006780183529576014     -0.047274397198000986    -0.006311011600134085
-0.04875965754571876      -0.061767639024156044    0.009293318986526324     1.4983372415664768E10    0.0066676484048255324    -0.046602862362892       -0.00627417386978662
-0.04851471689227521      -0.060004938237642705    0.0101083772335468       2.1336526097539608E10    0.005018073073343164     -0.047196971181235996    -0.004955252566936564
-0.04875457941268432      -0.0652923126277529      0.008479800673698218     7.239683088020491E9      0.00999784206351291      -0.045788758498675156    -0.009415292889688585
-0.04875458942994017      -0.06353033981066938     0.008479818302787373     1.123899477404668E10     0.008289006355247232     -0.04574519318157405     -0.007764345919354229
-0.0484995125449394       -0.06529304059718265     0.007667875182329935     8.213650459866484E9      0.00988214692460826      -0.044623963637282126    -0.009425768715639387
-0.048499512669747995     -0.05999515833337221     0.007667875434681681     1.9946440250859417E10    0.004777337570210343     -0.0445953995033641      -0.00492173658663259
-0.04849951262814513      -0.061761119087975706    0.007667875350564432     1.5606409713860485E10    0.006469579608813271     -0.04459399694673515     -0.006259866553675421
-0.04875458945849632      -0.05999841830146241     0.008479818490634556     1.85221702986717E10      0.004849601694851557     -0.04569967047836192     -0.004920023745532043
-0.048754589444218246     -0.06176437905606591     0.008479818396710965     1.4047981246595083E10    0.00656462348528454      -0.04571696986266718     -0.006260577794463419
-0.04849951258654226      -0.06352707984257917     0.007667875266447183     1.2132291205037624E10    0.008171182726945909     -0.044603518324707825    -0.007761210596677687
-0.04875965753267205      -0.060001678269552564    0.009293319090256262     1.8725627828597794E10    0.004929846862562497     -0.04656686103765255     -0.004931195738966701
-0.04851471689227521      -0.05725706781259607     0.0101083772335468       2.257879403678041E10     0.002270692424612105     -0.04710260003713392     -0.0031099600148931593
-0.048759657532672064     -0.057253807844505934    0.009293319090256238     1.934425280440226E10     0.0022324629672873767    -0.0465011615792847      -0.0031016566055470135
-0.048514716892275205     -0.054509197387549405    0.0101083772335468       2.3338701427320396E10    -4.7680566338264055E-4   -0.04704611889072109     -0.0013612759056737032
-0.04875965753267205      -0.05450593741945927     0.00929331909025621      1.9781760152991997E10    -4.6503836725143253E-4   -0.04647335211860609     -0.0013687259149512748
-0.048514716892275205     -0.05176132696250277     0.0101083772335468       2.4249401178257812E10    -0.0032244211906410736   -0.04702752774199751     2.907997607218048E-4
-0.048754589458496325     -0.05725054787641576     0.008479818490634504     1.9435397677789692E10    0.002202214553032373     -0.045662642705728285    -0.0031062380307360733
-0.048499512669748        -0.0517216157071306      0.00766787543468168      2.526144762769161E10     -0.003056254960798133    -0.04459536666301197     3.3496985563138135E-4
-0.048499512669748        -0.054479463249211144    0.007667875434681681     2.2844729757309067E10    -4.496057857733435E-4    -0.044583589352437794    -0.0013428302424519777
-0.048754589458496325     -0.051734852792254676    0.00847981849063452      2.042007326706745E10     -0.00311064569047551     -0.04564548384070448     2.976790249778382E-4
-0.048754589458496325     -0.05449270033433522     0.00847981849063451      1.9962585953316547E10    -4.5648973637725347E-4   -0.04564816914453727     -0.0013670618115434684
-0.048499512669748        -0.05723731079129168     0.00766787543468168      2.1730557384654037E10    0.0021615917245628143    -0.04458360029922183     -0.0030950657232066345
-0.04875965753267206      -0.05174808987737872     0.009293319090256226     2.0414690509204304E10    -0.003166701100423157    -0.04645620420036633     2.8295566000797936E-4
-0.048499512669748        -0.04344538320562743     0.007667875434681681     1.3052272227943428E10    -0.010879566304619637    -0.04448172133184005     0.0063792081204170565
-0.048499512669748        -0.046204127372795153    0.007667875434681681     1.7725634011598656E10    -0.0082636346354895      -0.044507550822364746    0.0041063074457820346
-0.048754589458496304     -0.04346860144873633     0.008479818490632321     1.1655131189959965E10    -0.011035824170378497    -0.0456328331649207      0.006322248428775311
-0.048754589458496325     -0.04622734561590407     0.008479818490632353     1.5232682531727362E10    -0.008387560433953199    -0.04562689933206246     0.004051465231080844
-0.048499512669748        -0.04896287153996288     0.00766787543468168      2.140442669743821E10     -0.005655864187548998    -0.04454543259942205     0.0020915613575201424
-0.04875458945849631      -0.04898608978307179     0.00847981849063238      1.7924955506953423E10    -0.00574745791871753     -0.045633017785736835    0.002038836619759507
-0.048759657532672036     -0.043491819691845235    0.009293319090254028     1.1540323017789627E10    -0.01120687835257869     -0.04654420052868341     0.006313047662293209
-0.048759657532672064     -0.04625056385901299     0.00929331909025409      1.5248228786057842E10    -0.008526282548858224    -0.04650650337244224     0.004044381941539298
-0.048514716892275205     -0.04351503793495414     0.0101083772335468       1.4049154815288828E10    -0.011392728851220212    -0.04721582342312819     0.006351605820970753
-0.048514716892275205     -0.0490125639533199      0.0101083772335468       2.0875564161857094E10    -0.005965095606555568    -0.04706955931555505     0.0020798640958625213
-0.048759657532672064     -0.04899932686819586     0.009293319090255159     1.747631596641163E10     -0.0058554444225014145   -0.04647098695966128     0.0020480666249691718
-0.0485147168922752       -0.04626380094413702     0.0101083772335468       1.77467436169065E10      -0.008687864826748614    -0.047132324542598615    0.004100132782612171
-0.048499512669738        -0.0381431649117068      0.00766787543467168      5.216867724052578E9      -0.015934017011783447    -0.044477343603792054    0.011962766132705735
-0.04849951266974134      -0.039910571009680346    0.007667875434675014     4.9280951041274605E9     -0.014236695164614531    -0.04446405298618886     0.009941587295071136
-0.04875458338242887      -0.03819984180662221     0.008478867716049884     3.9499345574070168E9     -0.01605740790546123     -0.04567417539136304     0.011883695220159238
-0.048754586420463146     -0.03995200176076689     0.008479343103340566     4.0600702212468615E9     -0.014382849678127614    -0.04565411856283483     0.0098647844386836
-0.04849951266974467      -0.041677977107653884    0.0076678754346783465    8.443855747868284E9      -0.01255187826222659     -0.044465512228871525    0.008080401290974908
-0.04875458945849741      -0.04170416171491155     0.008479818490631246     7.826572361514921E9      -0.012720796395574975    -0.04564881159459247     0.008005866490746331
-0.0487596514566046       -0.03822602641387987     0.009292368315671588     3.0908728033861585E9     -0.016236553180976693    -0.046645172784607544    0.01188864155359056
-0.04875965753266982      -0.03996294022419568     0.00929331909024962      4.2668642559842863E9     -0.014584758573478376    -0.04661834974515432     0.00987199882827388
-0.048514716892265206     -0.0382217187334798      0.0101083772335368       4.23326023501466E9       -0.01647145283832983     -0.04739033578352559     0.011977605132999706
-0.04851471689227187      -0.04175059820112936     0.010108377233543466     8.887001287445862E9      -0.013106789265271238    -0.04728322534112935     0.008061400575649481
-0.048759657532670926     -0.04172737995802046     0.009293319090251825     7.334000312010349E9      -0.012906394672202443    -0.04658589070251987     0.008009754070618083
-0.048514716892268536     -0.03998615846730458     0.01010837723354013      5.427433898396097E9      -0.014799697260974442    -0.04734139612792848     0.009936733679659132
-0.02194908778754411      -0.0603934520802086      0.060095426615922515     5.181493129203706E10     0.016485505833620417     -0.09943254255246585     -0.009277458945387708
-0.021216005879843233     -0.0622920453783423      0.06134316011669001      4.2534723954852844E10    0.022599537710873963     -0.1000536213997706      -0.011961700768502241
-0.021216005879840554     -0.059833628181012344    0.06134316011669157      4.8786350389829636E10    0.015045986636409638     -0.10019947080914876     -0.008707048368467925
-0.020480304092791092     -0.061732221479146046    0.06258927235034163      4.0222393894566414E10    0.02124307658492172      -0.10069877302506726     -0.011387203046851002
-0.02048030409279076      -0.064190638676476       0.06258927235033918      3.373226295024587E10     0.028743248877077094     -0.10055894377178964     -0.01487826337340543
-0.019741982426390033     -0.06363081477727973     0.06383376331687333      3.0175887314173374E10    0.02746984582238338      -0.10108231876570008     -0.014299678507022736
-0.019741982426386702     -0.0660892319746097      0.06383376331687         1.9728290708322456E10    0.03491663933222982      -0.100948509668523       -0.01802714676009728
-0.020480304092791418     -0.059273804281816084    0.06258927235034405      4.692676458780303E10     0.013511656552952082     -0.10086163689283766     -0.008109504044799157
-0.01974198242639337      -0.061172397579949786    0.06383376331687668      3.699728859311708E10     0.019791804572722692     -0.10123916247736992     -0.01078557157845078
-0.0197419824263967       -0.05871398038261981     0.06383376331688         4.3171212825796715E10    0.011882515583247752     -0.1014190408035325      -0.00748482597438141
-0.022090253392744327     -0.05853929740075689     0.05985445729791768      5.4301225582212555E10    0.010791253713351392     -0.0993673057260155      -0.006920442411740232
-0.021357677983842128     -0.057979473501560644    0.06110250223915622      5.181005348768324E10     0.009211734676820538     -0.10016184369951185     -0.006329878882910529
-0.02062248269559434      -0.057419649602364356    0.06234892591327818      5.0155698439007385E10    0.007537404754042902     -0.10085161950001416     -0.005712181607331841
-0.022231321078370364     -0.056685142721305176    0.0596134281551018       5.724987092940372E10     0.005087120006232262     -0.0992781312670807      -0.004644175166323303
-0.021499252168269516     -0.056125318822108916    0.06086178453680983      5.4979712830528915E10    0.0033676011303813277    -0.10010027895739047     -0.0040334586855836786
-0.022372290844422226     -0.05483098804185345     0.0593723391874749       6.012220354597032E10     -6.268952877369783E-4    -0.09916501917566144     -0.002448657209136919
-0.021499252168270165     -0.0530189564540783      0.06086178453680871      5.5851815706488525E10    -0.006435199070021089    -0.10016639085940394     -2.846043321540656E-4
-0.020622482695594663     -0.05431328723433376     0.062348925913277634     5.10282076967788E10      -0.002477650011395482    -0.10095961171617025     -0.0018295997653895886
-0.0197419824263967       -0.05560761801458921     0.06383376331687998      4.460635508175981E10     0.0016552062527733975    -0.10156891333383121     -0.003468516643926516
-0.02062248269559499      -0.051206924866303155    0.06234892591327707      5.20916447990747E10      -0.012524204050455368    -0.1009989858423172      0.0020458944758154633
-0.0197419824263967       -0.05250125564655862     0.06383376331688         4.550838404641767E10     -0.008603602351322457    -0.10165016777412077     5.407050857911774E-4
-0.019741982426396697     -0.04939489327852801     0.06383376331687998      4.675832073853723E10     -0.018893910229039815    -0.10166280412440122     0.004542839214771669
-0.02248663292356711      -0.062360830919639364    0.0591766222803309       4.764519815412218E10     0.022086826754531344     -0.09871393598791281     -0.011671355093661247
-0.021755514520240153     -0.06426049903834471     0.060425487055779034     3.813749599247571E10     0.02810845895274313      -0.09941531819046574     -0.014556975048978878
-0.02302275315468914      -0.06432820975907014     0.0582569524632358       4.289169487080705E10     0.02733772645363458      -0.0979641836366765      -0.014198703890836606
-0.0222935982557361       -0.06622895269834711     0.05950694851336455      2.930357040016803E10     0.03326695897280461      -0.09874586919447761     -0.017285701978357337
-0.023557448480910206     -0.06629558859850092     0.057336417164637214     3.2607763165868137E10    0.03223820493093013      -0.09718328549875689     -0.01685950533691379
-0.0210217762375616       -0.06616016715705005     0.061672730564108824     2.5840926220939636E10    0.0341597704399045       -0.10000094391773298     -0.01767491578608517
-0.024398068742739133     -0.06343367877647235     0.05588245062065203      4.825642684515585E10     0.023730353688957602     -0.09613542943191797     -0.012547028456252014
-0.025216671741357926     -0.06637295842436115     0.05445855008047291      3.4245211033214287E10    0.030634178204171216     -0.09475145645136981     -0.016390962708250405
-0.026050254555248276     -0.06349583570295415     0.05300035599004049      4.909164279868421E10     0.022548856288732        -0.09355090349592876     -0.012161713762667972
-0.025235122770220594     -0.060571768954443765    0.05442636205744937      5.730425356152309E10     0.015443638480479686     -0.09498165518078619     -0.008760698958892909
-0.026880271134791165     -0.06061871298154715     0.051540039880390597     5.8316479996580246E10    0.01468467040678739      -0.0922444323561949      -0.00845861220038821
-0.0260686105633546       -0.0577098591324152      0.05296815147502925      6.5585266347815384E10    0.007378059305496398     -0.09372196274536163     -0.0055005168448364755
-0.026861952849655736     -0.06641990245146451     0.05157235768119882      3.4739343747686455E10    0.028908757432017818     -0.09206373657869574     -0.015928223510790915
-0.027688498215607517     -0.0635275668306791      0.05010993604431918      4.9850267585162445E10    0.021245964843111906     -0.09071048673465258     -0.011782202500287827
-0.02849329180580365      -0.06643642067981104     0.04867783996681495      3.665243696994929E10     0.02706194261446993      -0.08912012588073466     -0.015471287744535317
-0.023331761865893797     -0.0594989210976108      0.05772536633664877      5.681691039906468E10     0.013281873940661432     -0.09777253327521115     -0.007889287220796171
-0.023865627756766948     -0.06146629993704158     0.05680434121940215      5.251940761245059E10     0.01868132442571336      -0.09696955424690619     -0.010151431514073182
-0.02470493612449729      -0.05860439011501299     0.05534960795635101      6.0863862386479904E10    0.010246058431286759     -0.09586900667284304     -0.006630306520612426
-0.023612066173036007     -0.05579061173870736     0.05724220012422757      6.1502102362293015E10    0.0023311490438542555    -0.097532434168327       -0.0035176290101727914
-0.023471962979251994     -0.05764476641815909     0.0574838131428437       5.852822013376124E10     0.007811452285682899     -0.0976644525380113      -0.005663083471369209
-0.02484417274601346      -0.05675023543556128     0.05510747088674568      6.27141756167206E10      0.004999467241598714     -0.09571808202489372     -0.004534915555405977
-0.02308484021926819      -0.052313802752662834    0.05815023316026935      6.043984329771202E10     -0.008142040800632421    -0.0982888733030641      4.640184145319697E-4
-0.022214868526023657     -0.05050177116488769     0.059641550589873        5.6393142780396774E10    -0.01402250038504751     -0.09935656485087023     0.002696531840808277
-0.021341166036256003     -0.04868973957711252     0.061130564046611185     5.2640469045326515E10    -0.020183661167612766    -0.1002554796978471      0.005095491198071261
-0.023794868429390364     -0.0497966174634722      0.056926606150665006     6.090201840849835E10     -0.015228961899350489    -0.09726822458541004     0.003359496269616999
-0.02292796371905336      -0.047984585875697046    0.05841979566053851      5.597352152501497E10     -0.021181577285896556    -0.09840223599727979     0.0056604702451867606
-0.024502375474788753     -0.04727943217428155     0.0557014581586619       5.97414999617063E10      -0.021887658583891186    -0.09610307302269928     0.006237776356118169
-0.024320218469899176     -0.05327342644951675     0.05601745181372449      6.1825388973311806E10    -0.004965108329757019    -0.09653672555007761     -6.58021212894769E-4
-0.02502584960203856      -0.0507562411603261      0.05479118252082262      6.1938674810498245E10    -0.011833141289190918    -0.09539651408677147     0.0021843888157993944
-0.025547927964893847     -0.054233050146370664    0.05388008029294508      6.29841371303385E10      -0.002077901992728391    -0.09460281066099224     -0.0017283755845188208
-0.019741982426393367     -0.04546470473413347     0.06383376331687665      3.553716526265701E10     -0.03157342902492269     -0.10150247032276324     0.009924417143067663
-0.021341166036255348     -0.044759551032718       0.06113056404660931      4.0980157647201294E10    -0.03218286178704129     -0.10004264751836156     0.010453153875199395
-0.01974198242639003      -0.04153451618973893     0.06383376331687332      2.5488226835070435E10    -0.04349956462538482     -0.10128248990446201     0.016055695891834948
-0.02134116603625469      -0.04082936248832346     0.061130564046607425     3.045595824850894E10     -0.04342867921104909     -0.0997701687222128      0.016560517372798827
-0.019741982426386702     -0.0376043276453444      0.06383376331687         2.032610256814085E10     -0.05467231703042621     -0.10100286286949756     0.022936675461073534
-0.022927963719055377     -0.044054397331302515    0.058419795660538065     4.265476437985021E10     -0.03250045972887075     -0.0981369054399467      0.010994217671147038
-0.03402589848881872      -0.06632962429826178     0.03860622638981785      3.048393112879005E10     0.020923157889755486     -0.0780672312653261      -0.014374374498411937
-0.032200314321971416     -0.06631406738501108     0.041974364551011244     3.233640591501246E10     0.022693393648844363     -0.08186124058314753     -0.014613138172723344
-0.03329710056009055      -0.06320158445529642     0.03995627316511136      4.276759164467522E10     0.015969267991983383     -0.07966723914051003     -0.010531778844378569
-0.0314640676310715       -0.06321160539559595     0.04332001691669889      4.543229815402167E10     0.01734680379787353      -0.08343452478740312     -0.010744677408991309
-0.030356112094299722     -0.06634966617886082     0.045331569076676945     3.4673577328573456E10    0.024739655223749175     -0.0855455387882837      -0.014978775921431136
-0.029612416641228056     -0.06327278204299593     0.046672827032758706     4.791550195719073E10     0.019000365419579602     -0.08709209932161097     -0.011084450048000433
-0.032565264274899766     -0.060073544612331053    0.041304659889689094     5.10054102838165E10      0.010418459589412848     -0.08123463969462032     -0.007054187347774917
-0.030724782583708976     -0.06010914340618083     0.04466400923167074      5.387095853291184E10     0.011403295442104252     -0.08497520167058506     -0.0072412208026889895
-0.031830389633246386     -0.0569455047693657      0.04265138656355106      5.871528060663659E10     0.00427073268204388      -0.08276943292765691     -0.003941600008600984
-0.028812440437810467     -0.060363928193863985    0.048107676527896756     5.637787301718022E10     0.013015581394139095     -0.08869527482079868     -0.00780774471830423
-0.028009030743772655     -0.057455074344732036    0.04954053378160201      6.405788129140564E10     0.006285480703732096     -0.0902420350876108      -0.004896534332955902
-0.029929623767069927     -0.05720028955704888     0.04610161214444262      6.17610068432195E10      0.005249705162581258     -0.08659119181504257     -0.004376895387544072
-0.031143366534992507     -0.05375681043139397     0.04390392191010266      5.737736645145411E10     -0.0024262239578642956   -0.0841538525187833      -8.066209519583679E-4
-0.029235392881482053     -0.05401159521907715     0.04735007773875441      6.00476976378245E10      -0.0020626594228790483   -0.08793948762944322     -0.0011889366418458037
-0.02730759207085079      -0.0542663800067603      0.050784929623673994     6.22391693422406E10      -0.0016422918272803394   -0.09155420712528572     -0.0016555958982019821
-0.030453723256724335     -0.050568116093422225    0.04515499213951263      5.745945715251958E10     -0.009514173825035223    -0.08550958092821453     0.0024611085836422765
-0.028538541815879892     -0.0508229008811054      0.04859707821592458      6.0184885913032364E10    -0.009766017235602106    -0.08925909226214873     0.0021317725828104922
-0.029761459798441886     -0.04737942175545048     0.04640459725178099      5.8638145860532074E10    -0.016993116919468903    -0.08683661815595066     0.005861588598200949
-0.02627152770512612      -0.047312762034671205    0.05261187337351411      5.996282955466189E10     -0.020145133279901785    -0.09321858707254745     0.00601917983349227
-0.02679025777018572      -0.050789571020715754    0.05169881479361319      6.0917318072295586E10    -0.010744073554472192    -0.0924299693438423      0.0021114803976448647
-0.028024555813010495     -0.04734609189506084     0.049512919737887136     5.9381350467604416E10    -0.01851361939176102     -0.09012976878363123     0.005893783914186531
-0.026207795522914384     -0.03758166108350667     0.05272434496234215      3.3663101328692535E10    -0.04344450340976968     -0.09282667580728547     0.020705842522973136
-0.025640878961918474     -0.04081425144709831     0.05371763954747478      3.750696103051367E10     -0.03705934652828459     -0.0940143743043067      0.015141449790372392
-0.02407613111516751      -0.0375817533779783      0.05644124481019075      3.0690384376336E10       -0.04745263194662361     -0.0962168272786662      0.021344859893036538
-0.023502825811301097     -0.040818075354640417    0.05743098199521077      3.2699093481184353E10    -0.04037677486798439     -0.09722464940524811     0.015798686776933912
-0.02507240561254326      -0.044046841810689935    0.05471001061291469      4.6288837043614784E10    -0.029873731586325093    -0.09510650670944465     0.010318761068087403
-0.021920860082991614     -0.03758930889859087     0.06014438426170002      2.6637509756977898E10    -0.051195236486842446    -0.09894222296607023     0.02208847087240334
-0.02683639054376656      -0.04408017167107959     0.05161739568370519      4.747414569589569E10     -0.027621027449044       -0.09212747278323269     0.010024308398547397
-0.027399696594027703     -0.04084758130748794     0.05062199447420355      3.7558281349108795E10    -0.03429646355771179     -0.09094079240203462     0.014771140973918274
-0.028584251352536876     -0.044113501531469215    0.0485154119040165       4.6733734180878136E10    -0.02547933472761154     -0.08894410651825638     0.009823056332327551
-0.03924196273861451      -0.06615968373954978     0.028723965609407893     2.450157540356711E10     0.016510156958232155     -0.06689052047900566     -0.013295869705748928
-0.037521489201596474     -0.06624086503730041     0.03202726493033518      2.559577452139439E10     0.017862457962120992     -0.07065758778957829     -0.01374443538223175
-0.03869428797740436      -0.06343117123514158     0.029780299168901087     3.480924076633565E10     0.012973604007179012     -0.06809232889816741     -0.01013713856827193
-0.03696795841211015      -0.0635000853104689      0.03308072673568971      3.652365567470741E10     0.014037609007276453     -0.0718712211205952      -0.010475660307973608
-0.03578280111833121      -0.0662975118902044      0.0353213518571385       2.7592042516692253E10    0.019333458272628765     -0.07438315805168509     -0.014103936979786085
-0.035223414300568696     -0.06354446494094958     0.036371941908354355     3.864264742042313E10     0.015220313313992834     -0.07560861629455717     -0.010725117968746799
-0.038144760413786664     -0.06070265873073338     0.030835681634532784     4.161486520065398E10     0.009122710401433143     -0.06929634026028514     -0.007230847615739912
-0.03641257482021627      -0.0607593055836374      0.03413323744718275      4.333226845083098E10     0.00989841939773919      -0.07308705739456808     -0.007459325418660445
-0.03759338004776142      -0.0579741462263252      0.03189011300630299      4.816955183901697E10     0.004957476140994551     -0.07050255456535887     -0.004576996848152868
-0.0344996550435208       -0.06041642509798423     0.037724697739207044     4.692683674682056E10     0.010192796919495506     -0.07719643236046657     -0.007251220391993084
-0.033772857430010295     -0.057288385255018864    0.03907579351934394      5.472082368817613E10     0.0045683620201997345    -0.07875164110530225     -0.004142326972669079
-0.03569385423484865      -0.05763126574067204     0.035488702333594586     5.168992469140108E10     0.004797276506516625     -0.0746626816512029      -0.004354125919186376
-0.040953886671117795     -0.05981868474623094     0.025392535792492413     4.292058350154979E10     0.006830147687535525     -0.06298775330395105     -0.0060212059699331485
-0.04179158406852601      -0.06183587385864505     0.023745734582363634     3.6793698601739006E10    0.0092785821724827       -0.06113168331618423     -0.007856228225453288
-0.040385293692954266     -0.06193235107733724     0.026504043062211505     3.7674143806638985E10    0.009996095129927836     -0.06429905387901383     -0.00820719374881538
-0.04122616798599838      -0.0639611566446333      0.024858480330219562     3.198193720139294E10     0.012335802374221936     -0.06243871699954066     -0.010235745843184716
-0.04262477300543674      -0.06385306297105914     0.02209672244057124      3.1679397126262314E10    0.011496096424006105     -0.0592991437642992      -0.009755880294191865
-0.042062533818544995     -0.06598996221192933     0.023210706666563996     2.2614044296829426E10    0.014444589385092268     -0.06060191055594927     -0.012328927750772493
-0.04345345348184998      -0.06587025208347326     0.020445499367115223     2.3121460448063957E10    0.013482690442105745     -0.05749013464829599     -0.011720162176148888
-0.039814652382119835     -0.06404601740844351     0.027614519667849998     3.2924610933815964E10    0.013222764886826712     -0.0655999762706987      -0.010632081660753972
-0.04065870357079985      -0.06608643943062154     0.025970195413994895     2.326978373060205E10     0.015453744890467736     -0.06373537249951916     -0.012854163593972507
-0.039841515189931266     -0.05920383857292903     0.027562356852789797     4.469299850799831E10     0.0062797030476346325    -0.06551354299157727     -0.00556376187357498
-0.03926892575000327      -0.06131750490403533     0.028671843342885747     3.9720375491786095E10    0.00959629237015354      -0.06680812503656129     -0.007731000154395275
-0.038721346315479147     -0.0585889923996271      0.029728215924059987     4.589348370704383E10     0.005655479198787641     -0.06801847674537986     -0.005082358832981553
-0.04642909983904214      -0.06556190991369742     0.01442188033959485      1.7716186988290337E10    0.011512210966224843     -0.05116946711752173     -0.010338516580526298
-0.04544389660114455      -0.06566766372038435     0.016432889814827538     1.940390552713287E10     0.012148515845584523     -0.053200214536108764    -0.010806795684545798
-0.046342449818727725     -0.06435224945948712     0.014599425351115143     2.4653259016493546E10    0.010282580082921513     -0.05129496113921212     -0.00913816302291849
-0.04535665204805841      -0.0644565167244599      0.016610169361211385     2.608518825132446E10     0.010868381619270829     -0.053336313464817445    -0.009568691683236053
-0.04445201448208049      -0.06577044444364295     0.018440762824000995     2.049555148798663E10     0.012805342337544821     -0.05530710371303352     -0.011267344216419993
-0.04436417539622263      -0.06455781090600435     0.018617776905248393     2.826287960475515E10     0.01147470476822076      -0.055453807548760475    -0.00999148977140831
-0.04625574785123118      -0.06314258900527679     0.014776946184911849     2.8346581635342903E10    0.009027492292112868     -0.051416928592047655    -0.008011377492232425