% Model:              wentai_test_m27.mph
% Version:            COMSOL 5.5.0.292
% Date:               Jan 3 2022, 17:28
% Dimension:          3
% Nodes:              22177
% Expressions:        4
% Description:        表面
% X                       Y                        Z                        Color                    DeformX                  DeformY                  DeformZ
-0.04851473881663425      -0.06529392956856216     0.010108330297943599     2.393584336331541E11     0.27740048711888093      -1.2806106439881566      -0.25605447263717146
-0.048514721764346014     -0.06353093245825568     0.010108366803403778     3.6931006545563E11       0.23036912667770776      -1.2785061983757942      -0.2111515309801657
-0.0487596548365826       -0.06529260895154608     0.009293285712236105     2.0599223033030823E11    0.27346924243253146      -1.2615510213896184      -0.25473248045971875
-0.04875965131906641      -0.06353012398785107     0.009293312779510773     3.300553158073578E11     0.22688428015040749      -1.2599106668025737      -0.20999322553175026
-0.04851471445622633      -0.061767935347949186    0.010108382448604845     4.6939096161722974E11    0.18306495529802858      -1.2764087243432871      -0.17039731320353577
-0.04875965754571876      -0.061767639024156044    0.009293318986526324     4.045510552220631E11     0.1800265069297775       -1.2582772837953837      -0.16940269448415757
-0.04851471689227521      -0.060004938237642705    0.0101083772335468       5.76086204632333E11      0.13548797297984336      -1.2743182218906355      -0.13379181930728168
-0.04875457941268432      -0.0652923126277529      0.008479800673698218     1.9547144337613245E11    0.26994173571415014      -1.2362964794615776      -0.2542129080213271
-0.04875458942994017      -0.06353033981066938     0.008479818302787373     3.034528588986133E11     0.2238031715910755       -1.23512021589985        -0.20963733982239585
-0.0484995125449394       -0.06529304059718265     0.007667875182329935     2.217685624159213E11     0.2668179669637372       -1.2048470182040336      -0.2544957553219966
-0.048499512669747995     -0.05999515833337221     0.007667875434681681     5.3855388677204254E11    0.1289881143952876       -1.2040757865882463      -0.13288688783907554
-0.04849951262814513      -0.061761119087975706    0.007667875350564432     4.2137306227333246E11    0.17467864943746927      -1.2040379175592657      -0.16901639694915382
-0.04875458945849632      -0.05999841830146241     0.008479818490634556     5.000985980630686E11     0.13093924576059052      -1.2338911029131236      -0.13284064112936286
-0.048754589444218246     -0.06176437905606591     0.008479818396710965     3.792954936572604E11     0.17724483410218222      -1.2343581862893651      -0.16903560045043164
-0.04849951258654226      -0.06352707984257917     0.007667875266447183     3.2757186253531226E11    0.22062193362695248      -1.204294994764528       -0.20955268611012748
-0.04875965753267205      -0.060001678269552564    0.009293319090256262     5.055919513710471E11     0.13310586528877577      -1.2573052480139197      -0.13314228495209823
-0.04851471689227521      -0.05725706781259607     0.0101083772335468       6.096274389917441E11     0.06130869546426293      -1.2717702009998841      -0.08396892040221782
-0.048759657532672064     -0.057253807844505934    0.009293319090256238     5.222948257177399E11     0.06027650011650279      -1.2555313626379905      -0.08374472834987391
-0.048514716892275205     -0.054509197387549405    0.0101083772335468       6.301449385362787E11     -0.012873752911436836    -1.2702452100467398      -0.03675444945339507
-0.04875965753267205      -0.05450593741945927     0.00929331909025621      5.3410752412965686E11    -0.012556035915889534    -1.2547805071996683      -0.03695559970389069
-0.048514716892275205     -0.05176132696250277     0.0101083772335468       6.547338318115568E11     -0.08705937214725594     -1.269743249031203       0.00785159353918656
-0.048754589458496325     -0.05725054787641576     0.008479818490634504     5.2475573729920874E11    0.05945979293162498      -1.232891353052016       -0.08386842682997805
-0.048499512669748        -0.0517216157071306      0.00766787543468168      6.820590859462169E11     -0.08251888394148932     -1.204074899898736       0.009044186101743049
-0.048499512669748        -0.054479463249211144    0.007667875434681681     6.168077034459915E11     -0.012139356215970641    -1.2037569125132346      -0.03625641654640907
-0.048754589458496325     -0.051734852792254676    0.00847981849063452      5.513419782096204E11     -0.0839874336427811      -1.232428063696372       0.008037333674097669
-0.048754589458496325     -0.05449270033433522     0.00847981849063451      5.3898982073839355E11    -0.01232522288228155     -1.2325005668998583      -0.03691066891187982
-0.048499512669748        -0.05723731079129168     0.00766787543468168      5.867250493843738E11     0.05836297656295499      -1.2037572080764045      -0.08356677452668193
-0.04875965753267206      -0.05174808987737872     0.009293319090256226     5.511966437473391E11     -0.08550092971136997     -1.2543175134071944      0.007639802819912173
-0.048499512669748        -0.04344538320562743     0.007667875434681681     3.5241135015375275E11    -0.2937482902242188      -1.201006475957097       0.17223861925060183
-0.048499512669748        -0.046204127372795153    0.007667875434681681     4.7859211831216833E11    -0.2231181351578558      -1.201703872201262       0.11087030103558955
-0.048754589458496304     -0.04346860144873633     0.008479818490632321     3.146885421282523E11     -0.2979672525997047      -1.2320864954502082      0.17070070757627645
-0.048754589458496325     -0.04622734561590407     0.008479818490632353     4.112824283557676E11     -0.22646413171637414     -1.2319262819630359      0.1093895612386589
-0.048499512669748        -0.04896287153996288     0.00766787543468168      5.779195208296278E11     -0.15270833306361264     -1.2027266801818082      0.05647215665263661
-0.04875458945849631      -0.04898608978307179     0.00847981849063238      4.839737986866877E11     -0.15518136380516334     -1.2320914802122451      0.05504858873310064
-0.048759657532672036     -0.043491819691845235    0.009293319090254028     3.11588721479603E11      -0.3025857155191054      -1.2566934142717479      0.1704522868812602
-0.048759657532672064     -0.04625056385901299     0.00929331909025409      4.117021772226367E11     -0.23020962881880724     -1.2556755910532384      0.10919831242103735
-0.048514716892275205     -0.04351503793495414     0.0101083772335468       3.7932718001193463E11    -0.30760367898242097     -1.274827232421716       0.17149335716555314
-0.048514716892275205     -0.0490125639533199      0.0101083772335468       5.636402323689231E11     -0.16105758137678877     -1.2708781015172521      0.05615633058788085
-0.048759657532672064     -0.04899932686819586     0.009293319090255159     4.718605310920744E11     -0.15809699940732752     -1.2547166479081555      0.05529779887376081
-0.0485147168922752       -0.04626380094413702     0.0101083772335468       4.791620776554227E11     -0.23457235032184376     -1.2725727626474233      0.11070358513000304
-0.048499512669738        -0.0381431649117068      0.00766787543467168      1.4085542854910663E11    -0.43021845931735164     -1.200888277299801       0.32299468558206984
-0.04849951266974134      -0.039910571009680346    0.007667875434675014     1.3305856781115504E11    -0.38439076944388806     -1.2005294306245151      0.26842285696605384
-0.04875458338242887      -0.03819984180662221     0.008478867716049884     1.0664823304976108E11    -0.43355001344665056     -1.2332027355641475      0.3208597709433172
-0.048754586420463146     -0.03995200176076689     0.008479343103340566     1.0962189597344705E11    -0.3883369413087387      -1.2326612011938871      0.26634917984359296
-0.04849951266974467      -0.041677977107653884    0.0076678754346783465    2.2798410519196918E11    -0.33890071307951036     -1.2005688301769468      0.21817083485556438
-0.04875458945849741      -0.04170416171491155     0.008479818490631246     2.1131745376049762E11    -0.3434615026799127      -1.2325179130513448      0.21615839524939542
-0.0487596514566046       -0.03822602641387987     0.009292368315671588     8.3453565691236E10       -0.4383869358855632      -1.2594196651816927      0.32099332194596253
-0.04875965753266982      -0.03996294022419568     0.00929331909024962      1.1520533491133884E11    -0.39378848148320295     -1.2586954431164576      0.26654396836253014
-0.048514716892265206     -0.0382217187334798      0.0101083772335368       1.1429802634514809E11    -0.4447292266340895      -1.2795390661524362      0.32339533859000585
-0.04851471689227187      -0.04175059820112936     0.010108377233543466     2.3994903476047968E11    -0.3538833101616998      -1.276647084207744       0.21765781554177882
-0.048759657532670926     -0.04172737995802046     0.009293319090251825     1.9801800842382382E11    -0.3484726561488488      -1.25781904896533        0.21626335990593254
-0.048514716892268536     -0.03998615846730458     0.01010837723354013      1.465407152563467E11     -0.39959182604558924     -1.2782176954513171      0.2682918093499297
-0.02194908778754411      -0.0603934520802086      0.060095426615922515     1.3990031448819185E12    0.44510865750597384      -2.6846786489107863      -0.25049139152521965
-0.021216005879843233     -0.0622920453783423      0.06134316011669001      1.1484375467785017E12    0.6101875181914374       -2.7014477777879793      -0.32296592074914404
-0.021216005879840554     -0.059833628181012344    0.06134316011669157      1.317231460522498E12     0.40624163918133666      -2.705385711841176       -0.2350903059484081
-0.020480304092791092     -0.061732221479146046    0.06258927235034163      1.0860046351509165E12    0.5735630677907764       -2.718866871670948       -0.3074544822645826
-0.02048030409279076      -0.064190638676476       0.06258927235033918      9.107710996546019E11     0.7760677196785384       -2.715091481832464       -0.4017131110813476
-0.019741982426390033     -0.06363081477727973     0.06383376331687333      8.14748957480844E11      0.7416858372018538       -2.729222606668011       -0.3860913196890364
-0.019741982426386702     -0.0660892319746097      0.06383376331687         5.326638491234829E11     0.9427492619672772       -2.725609761044239       -0.48673296252183057
-0.020480304092791418     -0.059273804281816084    0.06258927235034405      1.2670226438679668E12    0.3648147269280426       -2.7232641961007342      -0.2189566092093749
-0.01974198242639337      -0.061172397579949786    0.06383376331687668      9.98926792011998E11      0.5343787234614585       -2.733457386883085       -0.29121043261779955
-0.0197419824263967       -0.05871398038261981     0.06383376331688         1.1656227462940308E12    0.3208279207460918       -2.7383141016894634      -0.20209030130812008
-0.022090253392744327     -0.05853929740075689     0.05985445729791768      1.466133090716519E12     0.29136385025904427      -2.682917254596629       -0.18685194511687758
-0.021357677983842128     -0.057979473501560644    0.06110250223915622      1.3988714441643953E12    0.2487168362727735       -2.7043697798809796      -0.17090672983849986
-0.02062248269559434      -0.057419649602364356    0.06234892591327818      1.354203857850316E12     0.20350992835784582      -2.7229937264945         -0.1542289033979004
-0.022231321078370364     -0.056685142721305176    0.0596134281551018       1.5457465150905334E12    0.13735224016716274      -2.6805095442053926      -0.12539272949075625
-0.021499252168269516     -0.056125318822108916    0.06086178453680983      1.484452246421085E12     0.09092523051925834      -2.7027075318437053      -0.10890338451081227
-0.022372290844422226     -0.05483098804185345     0.0593723391874749       1.623299495737731E12     -0.016926172769670702    -2.6774555177370774      -0.06611374464685557
-0.021499252168270165     -0.0530189564540783      0.06086178453680871      1.5079990240719692E12    -0.17375037489104045     -2.7044925531980635      -0.007684316968433675
-0.020622482695594663     -0.05431328723433376     0.062348925913277634     1.3777616078100835E12    -0.06689655030841149     -2.7259095163307054      -0.049399193665688075
-0.0197419824263967       -0.05560761801458921     0.06383376331687998      1.2043715872049463E12    0.044690568823875926     -2.742360660007515       -0.09364994938607395
-0.02062248269559499      -0.051206924866303155    0.06234892591327707      1.406474409572019E12     -0.33815350936244803     -2.72697261773667        0.05523915084661999
-0.0197419824263967       -0.05250125564655862     0.06383376331688         1.228726369250679E12     -0.23229726348611918     -2.7445545298953267      0.014599037316067886
-0.019741982426396697     -0.04939489327852801     0.06383376331687998      1.2624746599378435E12    -0.5101355761838935      -2.7448957113528976      0.12265665879830544
-0.02248663292356711      -0.062360830919639364    0.0591766222803309       1.286420350158505E12     0.5963443223702666       -2.6652762716678993      -0.31512658752847206
-0.021755514520240153     -0.06426049903834471     0.060425487055779034     1.0297123917945924E12    0.7589283917216076       -2.684213591136788       -0.3930383263218693
-0.02302275315468914      -0.06432820975907014     0.0582569524632358       1.15807576150925E12      0.7381186142457722       -2.645032958184565       -0.38336500505206594
-0.0222935982557361       -0.06622895269834711     0.05950694851336455      7.911964008027639E11     0.8982078922629908       -2.6661384682451503      -0.46671395341493593
-0.023557448480910206     -0.06629558859850092     0.057336417164637214     8.804096054764473E11     0.8704315331324909       -2.623948708460784       -0.4552066440960011
-0.0210217762375616       -0.06616016715705005     0.061672730564108824     6.977050079637876E11     0.9223138018745862       -2.7000254857729686      -0.47722272622354567
-0.024398068742739133     -0.06343367877647235     0.05588245062065203      1.302923524816351E12     0.640719549599758        -2.595656594656192       -0.33876976831839334
-0.025216671741357926     -0.06637295842436115     0.05445855008047291      9.246206978946455E11     0.8271228115101612       -2.5582893241814784      -0.44255599312213273
-0.026050254555248276     -0.06349583570295415     0.05300035599004049      1.3254743555615247E12    0.6088191197938022       -2.525874394384638       -0.3283662715916593
-0.025235122770220594     -0.060571768954443765    0.05442636205744937      1.5472148461577832E12    0.4169782389713672       -2.564504689875699       -0.23653887188992573
-0.026880271134791165     -0.06061871298154715     0.051540039880390597     1.5745449599042207E12    0.3964861009817852       -2.4905996736118965      -0.22838252941032605
-0.0260686105633546       -0.0577098591324152      0.05296815147502925      1.770802191387216E12     0.1992076012473187       -2.530492994119307       -0.14851395481059848
-0.026861952849655736     -0.06641990245146451     0.05157235768119882      9.379622811853223E11     0.7805364506621855       -2.485720887619439       -0.4300620347907641
-0.027688498215607517     -0.0635275668306791      0.05010993604431918      1.3459572247963691E12    0.5736410507622003       -2.44918314183035        -0.318119467507425
-0.02849329180580365      -0.06643642067981104     0.04867783996681495      9.896157981862609E11     0.7306724505885634       -2.406243398774665       -0.4177247691018951
-0.023331761865893797     -0.0594989210976108      0.05772536633664877      1.5340565807714216E12    0.35861059639632203      -2.639858398425009       -0.21301075496134658
-0.023865627756766948     -0.06146629993704158     0.05680434121940215      1.4180240055331E12       0.5043957594924335       -2.618177964660824       -0.27408865087969925
-0.02470493612449729      -0.05860439011501299     0.05534960795635101      1.6433242844314338E12    0.27664357764343694      -2.588463180161182       -0.17901827605647286
-0.023612066173036007     -0.05579061173870736     0.05724220012422757      1.6605567637783699E12    0.06294102418317221      -2.633375722539146       -0.0949759832747753
-0.023471962979251994     -0.05764476641815909     0.0574838131428437       1.5802619436081538E12    0.2109092117122231       -2.6369402185206168      -0.1529032537269506
-0.02484417274601346      -0.05675023543556128     0.05510747088674568      1.6932827416478403E12    0.13498561552216867      -2.5843882146665553      -0.12244271999602292
-0.02308484021926819      -0.052313802752662834    0.05815023316026935      1.631875769034773E12     -0.21983510161738443     -2.653799579176996       0.012528497192024835
-0.022214868526023657     -0.05050177116488769     0.059641550589873        1.5226148550675098E12    -0.37860751039628693     -2.6826272509676974      0.07280635970136533
-0.021341166036256003     -0.04868973957711252     0.061130564046611185     1.4212926642208276E12    -0.5449588515252274      -2.7068979518360186      0.13757826234733758
-0.023794868429390364     -0.0497966174634722      0.056926606150665006     1.644354497025978E12     -0.41118197128233314     -2.6262420638003943      0.09070639927914259
-0.02292796371905336      -0.047984585875697046    0.05841979566053851      1.5112850811722354E12    -0.5719025867187684      -2.6568603719208106      0.1528326966194017
-0.024502375474788753     -0.04727943217428155     0.0557014581586619       1.6130204989627102E12    -0.5909667817645169      -2.594782971607273       0.1684199616144977
-0.024320218469899176     -0.05327342644951675     0.05601745181372449      1.669285502275855E12     -0.1340579249038813      -2.6064915898464665      -0.01776657274844363
-0.02502584960203856      -0.0507562411603261      0.05479118252082262      1.672344219879925E12     -0.3194948148081698      -2.5757058803372668      0.058978498026125405
-0.025547927964893847     -0.054233050146370664    0.05388008029294508      1.700571702515512E12     -0.05610335380422462     -2.5542758878412783      -0.046666140782240004
-0.019741982426393367     -0.04546470473413347     0.06383376331687665      9.595034620897314E11     -0.8524825836719977      -2.7405666987086788      0.267959262861981
-0.021341166036255348     -0.044759551032718       0.06113056404660931      1.1064642564721638E12    -0.8689372682491033      -2.7011514829899186      0.282235154629482
-0.01974198242639003      -0.04153451618973893     0.06383376331687332      6.881821245455117E11     -1.1744882448837861      -2.734627227414555       0.43350378907833886
-0.02134116603625469      -0.04082936248832346     0.061130564046607425     8.22310872708126E11      -1.1725743386966636      -2.6937945554939136      0.4471339690643087
-0.019741982426386702     -0.0376043276453444      0.06383376331687         5.488047693387824E11     -1.4761525598192586      -2.7270772974705273      0.6192902374473791
-0.022927963719055377     -0.044054397331302515    0.058419795660538065     1.1516786382535996E12    -0.8775124126784161      -2.649696446872829       0.2968438771200149
-0.03402589848881872      -0.06632962429826178     0.03860622638981785      8.230661404753296E11     0.564925263021813        -2.107815244159284       -0.3881081114566109
-0.032200314321971416     -0.06631406738501108     0.041974364551011244     8.730829597032129E11     0.6127216285170562       -2.2102534957402398      -0.3945547306630149
-0.03329710056009055      -0.06320158445529642     0.03995627316511136      1.154724974403628E12     0.4311702357822296       -2.1510154567891515      -0.2843580287979372
-0.0314640676310715       -0.06321160539559595     0.04332001691669889      1.226672050155816E12     0.46836370254112697      -2.2527321692550437      -0.2901062900424775
-0.030356112094299722     -0.06634966617886082     0.045331569076676945     9.361865878692039E11     0.6679706910393062       -2.3097295472787         -0.40442694987810957
-0.029612416641228056     -0.06327278204299593     0.046672827032758706     1.2937185528412246E12    0.5130098663270313       -2.3514866816784403      -0.2992801512957085
-0.032565264274899766     -0.060073544612331053    0.041304659889689094     1.3771460776600098E12    0.2812984089131232       -2.193335271750031       -0.19046305838984498
-0.030724782583708976     -0.06010914340618083     0.04466400923167074      1.4545158803854229E12    0.30788897693567463      -2.2943304451008597      -0.19551296167252163
-0.031830389633246386     -0.0569455047693657      0.04265138656355106      1.5853125763757578E12    0.11530978241449373      -2.2347746890419233      -0.10642320023233424
-0.028812440437810467     -0.060363928193863985    0.048107676527896756     1.522202571460535E12     0.35142069764045236      -2.394772420156409       -0.21080910739410147
-0.028009030743772655     -0.057455074344732036    0.04954053378160201      1.7295627948642344E12    0.16970797899982185      -2.43653494736024        -0.13220642698986557
-0.029929623767069927     -0.05720028955704888     0.04610161214444262      1.6675471847633381E12    0.14174203938888025      -2.3379621790011127      -0.11817617546377752
-0.031143366534992507     -0.05375681043139397     0.04390392191010266      1.5491888941859834E12    -0.06550804686266289     -2.2721540180022504      -0.021778765703169507
-0.029235392881482053     -0.05401159521907715     0.04735007773875441      1.6212878362178237E12    -0.05569180441815029     -2.374366165989847       -0.03210128933011134
-0.02730759207085079      -0.0542663800067603      0.050784929623673994     1.6804575722369248E12    -0.04434187933708254     -2.4719635923773824      -0.04470108925169798
-0.030453723256724335     -0.050568116093422225    0.04515499213951263      1.5514053431148096E12    -0.25688269327589164     -2.3087586850568096      0.06644993175785449
-0.028538541815879892     -0.0508229008811054      0.04859707821592458      1.6249919196484675E12    -0.26368246536125295     -2.409995491072814       0.05755785973541408
-0.029761459798441886     -0.04737942175545048     0.04640459725178099      1.5832299382311277E12    -0.4588141568251926      -2.344588690205603       0.15826289215073777
-0.02627152770512612      -0.047312762034671205    0.05261187337351411      1.618996397972559E12     -0.5439185985568317      -2.51690185095334        0.16251785550359957
-0.02679025777018572      -0.050789571020715754    0.05169881479361319      1.6447675879485442E12    -0.29008998597075614     -2.4956091722783524      0.057009970735947345
-0.028024555813010495     -0.04734609189506084     0.049512919737887136     1.6032964626220195E12    -0.4998677235770568      -2.433503757152783       0.15913216568234623
-0.026207795522914384     -0.03758166108350667     0.05272434496234215      9.089037358732242E11     -1.1730015920619137      -2.506320246791276       0.5590577481187217
-0.025640878961918474     -0.04081425144709831     0.05371763954747478      1.0126879478220413E12    -1.0006023562622124      -2.5383881062107867      0.4088191443388305
-0.02407613111516751      -0.0375817533779783      0.05644124481019075      8.286403781596769E11     -1.2812210625568288      -2.5978543365183606      0.5763112171104133
-0.023502825811301097     -0.040818075354640417    0.05743098199521077      8.828755239903141E11     -1.0901729214340046      -2.6250655339360174      0.42656454297597257
-0.02507240561254326      -0.044046841810689935    0.05471001061291469      1.24979860017513E12      -0.8065907528297469      -2.5678756811494523      0.27860654883742253
-0.021920860082991614     -0.03758930889859087     0.06014438426170002      7.192127634371346E11     -1.3822713851426103      -2.6714400200781103      0.596388713553299
-0.02683639054376656      -0.04408017167107959     0.05161739568370519      1.2818019337866775E12    -0.745767741123216       -2.487441765141902       0.27065632675985
-0.027399696594027703     -0.04084758130748794     0.05062199447420355      1.0140735964241401E12    -0.9260045160568358      -2.4554013948496176      0.3988208062945836
-0.028584251352536876     -0.044113501531469215    0.0485154119040165       1.261810822881253E12     -0.6879420376445955      -2.4014908759877267      0.26522252097192234
-0.03924196273861451      -0.06615968373954978     0.028723965609407893     6.615425358948339E11     0.44577423787105513      -1.8060440529292803      -0.35898848205473977
-0.037521489201596474     -0.06624086503730041     0.03202726493033518      6.91085912076063E11      0.4822863649759426       -1.9077548703145244      -0.37109975531976064
-0.03869428797740436      -0.06343117123514158     0.029780299168901087     9.398495006890449E11     0.35028730819281345      -1.8384928802465748      -0.2737027413430476
-0.03696795841211015      -0.0635000853104689      0.03308072673568971      9.861387032149287E11     0.37901544319534786      -1.9405229702519065      -0.2828428283149845
-0.03578280111833121      -0.0662975118902044      0.0353213518571385       7.449851479489121E11     0.5220033733595286       -2.008345267391192       -0.3808062984537176
-0.035223414300568696     -0.06354446494094958     0.036371941908354355     1.0433514803490872E12    0.41094845947658065      -2.0414326399486615      -0.28957818515585754
-0.038144760413786664     -0.06070265873073338     0.030835681634532784     1.1236013604152324E12    0.24631318083788611      -1.8710011870236798      -0.1952328856248556
-0.03641257482021627      -0.0607593055836374      0.03413323744718275      1.1699712481698813E12    0.2672573237380674       -1.9733505496490984      -0.20140178630370853
-0.03759338004776142      -0.0579741462263252      0.03189011300630299      1.3005778996506636E12    0.13385185580627304      -1.9035689732605954      -0.12357891490016377
-0.0344996550435208       -0.06041642509798423     0.037724697739207044     1.2670245921613835E12    0.2752055168254233       -2.0843036737281175      -0.19578295058371367
-0.033772857430010295     -0.057288385255018864    0.03907579351934394      1.4774622395775557E12    0.12334577454474291      -2.1262943098385856      -0.1118428282621512
-0.03569385423484865      -0.05763126574067204     0.035488702333594586     1.3956279666648306E12    0.12952646567533604      -2.0158924045781434      -0.11756139981809441
-0.040953886671117795     -0.05981868474623094     0.025392535792492413     1.1588557545393906E12    0.18441398756283228      -1.7006693392030243      -0.16257256118812832
-0.04179158406852601      -0.06183587385864505     0.023745734582363634     9.934298622448671E11     0.25052171865627737      -1.6505554495334294      -0.212118162087061
-0.040385293692954266     -0.06193235107733724     0.026504043062211505     1.0172018827770854E12    0.26989456850723315      -1.7360744547296458      -0.22159423121782368
-0.04122616798599838      -0.0639611566446333      0.024858480330219562     8.635123044357833E11     0.33306666410305197      -1.6858453589839795      -0.27636513776567356
-0.04262477300543674      -0.06385306297105914     0.02209672244057124      8.55343722407294E11      0.31039460344729347      -1.601076881632641       -0.2634087679428888
-0.042062533818544995     -0.06598996221192933     0.023210706666563996     6.105791960131077E11     0.39000391339644197      -1.6362515850071202      -0.3328810492704185
-0.04345345348184998      -0.06587025208347326     0.020445499367115223     6.242794320964182E11     0.36403264193588075      -1.5522336355006607      -0.31644437875561177
-0.039814652382119835     -0.06404601740844351     0.027614519667849998     8.889644952111198E11     0.3570146519433074       -1.7711993593050643      -0.2870662048400275
-0.04065870357079985      -0.06608643943062154     0.025970195413994895     6.282841607248823E11     0.4172511120415001       -1.7208550574833268      -0.3470624170367945
-0.039841515189931266     -0.05920383857292903     0.027562356852789797     1.20671095971337E12      0.16955198228552157      -1.7688656607687847      -0.15022157058649033
-0.03926892575000327      -0.06131750490403533     0.028671843342885747     1.0724501382759386E12    0.2590998939933308       -1.8038193759832812      -0.20873700416851476
-0.038721346315479147     -0.0585889923996271      0.029728215924059987     1.2391240600875203E12    0.15269793836666845      -1.836498872121308       -0.13722368849050212
-0.04642909983904214      -0.06556190991369742     0.01442188033959485      4.783370486828525E11     0.3108296960872478       -1.3815756121701215      -0.279139947673882
-0.04544389660114455      -0.06566766372038435     0.016432889814827538     5.239054492315099E11     0.3280099278299103       -1.4364057924718547      -0.2917834834823798
-0.046342449818727725     -0.06435224945948712     0.014599425351115143     6.65637993443929E11      0.2776296622381276       -1.3849639507557543      -0.24673040161854104
-0.04535665204805841      -0.0644565167244599      0.016610169361211385     7.043000827843049E11     0.2934463037195131       -1.4400804635469802      -0.258354675447089
-0.04445201448208049      -0.06577044444364295     0.018440762824000995     5.53379890174481E11      0.34574424311278784      -1.4932918002487008      -0.30421829384295634
-0.04436417539622263      -0.06455781090600435     0.018617776905248393     7.630977493267848E11     0.3098170287411137       -1.4972528038133186      -0.26977022382771576
-0.04625574785123118      -0.06314258900527679     0.014776946184911849     7.653577041526475E11     0.2437422918863653       -1.3882570719823062      -0.216307192290083
-0.04526935554779015      -0.06324536972853545     0.016787424729871644     8.064249388369241E11     0.25819534310647385      -1.4436599172630247      -0.22691220413868113