% Model:              wentai_test_m38.mph
% Version:            COMSOL 5.5.0.292
% Date:               Jan 3 2022, 17:40
% Dimension:          3
% Nodes:              22177
% Expressions:        4
% Description:        表面
% X                       Y                        Z                        Color                    DeformX                  DeformY                  DeformZ
-0.04851473881663425      -0.06529392956856216     0.010108330297943599     3.368748324744707E11     0.39041550036406364      -1.8023409061170332      -0.36037296138992414
-0.048514721764346014     -0.06353093245825568     0.010108366803403778     5.1976972168212244E11    0.3242232153073754       -1.7993790937742038      -0.2971762286957831
-0.0487596548365826       -0.06529260895154608     0.009293285712236105     2.899149907954633E11     0.38488263747189577      -1.775516252093008       -0.35851237980681
-0.04875965131906641      -0.06353012398785107     0.009293312779510773     4.645222962590781E11     0.31931861649082594      -1.7732076048968322      -0.29554602102758504
-0.04851471445622633      -0.061767935347949186    0.010108382448604845     6.606243162618086E11     0.2576469741150701       -1.796427093284524       -0.23981844072140882
-0.04875965754571876      -0.061767639024156044    0.009293318986526324     5.693681517186715E11     0.25337063937413895      -1.7709087695538062      -0.23841860696812678
-0.04851471689227521      -0.060004938237642705    0.0101083772335468       8.107879915971173E11     0.19068677678714765      -1.7934849046479944      -0.18829959746680133
-0.04875457941268432      -0.0652923126277529      0.008479800673698218     2.751079573068116E11     0.3799179983863936       -1.7399728227174815      -0.3577811297084589
-0.04875458942994017      -0.06353033981066938     0.008479818302787373     4.2708180135631696E11    0.3149822414809421       -1.7383173406679597      -0.2950451448441499
-0.0484995125449394       -0.06529304059718265     0.007667875182329935     3.121187174327454E11     0.37552158310755723      -1.695710617990455       -0.3581792110948707
-0.048499512669747995     -0.05999515833337221     0.007667875434681681     7.57964729431826E11      0.18153882766626686      -1.6946251809020614      -0.187025990215548
-0.04849951262814513      -0.061761119087975706    0.007667875350564432     5.930435690478536E11     0.24584402512460612      -1.6945718837500352      -0.23787492895637158
-0.04875458945849632      -0.05999841830146241     0.008479818490634556     7.038424712554187E11     0.18428486440331526      -1.7365874779463826      -0.18696090225338025
-0.048754589444218246     -0.06176437905606591     0.008479818396710965     5.3382328729924963E11    0.2494556924310833       -1.7372448545497592      -0.23790195610595644
-0.04849951258654226      -0.06352707984257917     0.007667875266447183     4.6102706572998157E11    0.31050494360503617      -1.694933696112833       -0.2949260025828125
-0.04875965753267205      -0.060001678269552564    0.009293319090256262     7.115738573912742E11     0.18733418077694222      -1.7695407191950268      -0.18738543800379803
-0.04851471689227521      -0.05725706781259607     0.0101083772335468       8.579941732820588E11     0.08628631214927711      -1.789898801172859       -0.1181784804985079
-0.048759657532672064     -0.057253807844505934    0.009293319090256238     7.350816064686819E11     0.08483359277014235      -1.7670441397776406      -0.11786295094312826
-0.048514716892275205     -0.054509197387549405    0.0101083772335468       8.86870654118893E11      -0.018118615180618868    -1.7877525176097222      -0.05172848435699883
-0.04875965753267205      -0.05450593741945927     0.00929331909025621      7.517068857130037E11     -0.017671457928682986    -1.7659873802722532      -0.052011584709242824
-0.048514716892275205     -0.05176132696250277     0.0101083772335468       9.214772446503763E11     -0.12252800520254027     -1.787046053958585       0.011050390957725838
-0.048754589458496325     -0.05725054787641576     0.008479818490634504     7.385451116573413E11     0.08368415302758608      -1.7351804225867455      -0.11803704510033412
-0.048499512669748        -0.0517216157071306      0.00766787543468168      9.599350097229393E11     -0.1161376884724308      -1.6946239329694188      0.01272885456396364
-0.048499512669748        -0.054479463249211144    0.007667875434681681     8.680997306608894E11     -0.017085019834657725    -1.6941763951674251      -0.05102754915479564
-0.048754589458496325     -0.051734852792254676    0.00847981849063452      7.759627840441179E11     -0.11820453619884494     -1.7345283857164269      0.011311802999663743
-0.048754589458496325     -0.05449270033433522     0.00847981849063451      7.585782661239779E11     -0.01734660995652585     -1.7346304272618156      -0.051948348779796205
-0.048499512669748        -0.05723731079129168     0.00766787543468168      8.257611805061993E11     0.08214048554490816      -1.6941768111449724      -0.11761249741463284
-0.04875965753267206      -0.05174808987737872     0.009293319090256226     7.757582392456906E11     -0.12033464177554809     -1.7653357593794823      0.010752315130917811
-0.048499512669748        -0.04344538320562743     0.007667875434681681     4.9598634459473193E11    -0.41342351949803385     -1.6903054103859994      0.24240990859542141
-0.048499512669748        -0.046204127372795153    0.007667875434681681     6.735740923499069E11     -0.31401811608435465     -1.6912869310256666      0.1560396829707197
-0.048754589458496304     -0.04346860144873633     0.008479818490632321     4.428949851590954E11     -0.41936131839502827     -1.7340476600372385      0.24024544031366424
-0.048754589458496325     -0.04622734561590407     0.008479818490632353     5.788419361281467E11     -0.31872729642429887     -1.7338221743885178      0.15395567881269664
-0.048499512669748        -0.04896287153996288     0.00766787543468168      8.133682143930449E11     -0.21492283907582022     -1.6927264385534728      0.07947933162690045
-0.04875458945849631      -0.04898608978307179     0.00847981849063238      6.811483091734524E11     -0.2184034008587143      -1.7340546756279358      0.0774757915926115
-0.048759657532672036     -0.043491819691845235    0.009293319090254028     4.3853227461767E11       -0.42586137731675056     -1.7686796198556203      0.23989581118741565
-0.048759657532672064     -0.04625056385901299     0.00929331909025409      5.794326937935425E11     -0.32399873678897106     -1.7672471279185116      0.15368651381018217
-0.048514716892275205     -0.04351503793495414     0.0101083772335468       5.338678829107546E11     -0.4329236962632009      -1.7942012898411457      0.2413610212166757
-0.048514716892275205     -0.0490125639533199      0.0101083772335468       7.932714380451904E11     -0.22667363299344973     -1.7886432537537833      0.07903483568407213
-0.048759657532672064     -0.04899932686819586     0.009293319090255159     6.641000066353859E11     -0.2225068880009375      -1.7658975042328362      0.07782653179056483
-0.0485147168922752       -0.04626380094413702     0.0101083772335468       6.74376257353276E11      -0.33013886334700326     -1.7910283323813037      0.15580504577038873
-0.048499512669738        -0.0381431649117068      0.00766787543467168      1.98240973490016E11      -0.6054926463444344      -1.6901390567203138      0.45458511303422805
-0.04849951266974134      -0.039910571009680346    0.007667875434675014     1.8726761393251318E11    -0.5409944161607272      -1.689634013251436       0.37778031721432515
-0.04875458338242887      -0.03819984180662221     0.008478867716049884     1.5009751316361847E11    -0.6101815003025095      -1.7356186646419403      0.45158041835821605
-0.048754586420463146     -0.03995200176076689     0.008479343103340566     1.5428266838756277E11    -0.5465482876724295      -1.7348565051579519      0.3748618086723319
-0.04849951266974467      -0.041677977107653884    0.0076678754346783465    3.208665183755681E11     -0.4769713738785937      -1.689689464473331       0.30705524906805615
-0.04875458945849741      -0.04170416171491155     0.008479818490631246     2.974097496981244E11     -0.48339026294392307     -1.7346548403647362      0.3042229266600816
-0.0487596514566046       -0.03822602641387987     0.009292368315671588     1.1745316651432849E11    -0.6169890207701664      -1.7725165655803288      0.4517683790286122
-0.04875965753266982      -0.03996294022419568     0.00929331909024962      1.621408417067849E11     -0.5542208256937136      -1.7714972900812296      0.3751359554767468
-0.048514716892265206     -0.0382217187334798      0.0101083772335368       1.608638889110112E11     -0.6259152077474054      -1.8008327595354798      0.4551489950454168
-0.04851471689227187      -0.04175059820112936     0.010108377233543466     3.377060488791035E11     -0.4980579919884182      -1.796762562724908       0.3063332218858619
-0.048759657532670926     -0.04172737995802046     0.009293319090251825     2.786920118200031E11     -0.49044299745380665     -1.7702638464612506      0.30437065469521746
-0.048514716892268536     -0.03998615846730458     0.01010837723354013      2.0624248811305658E11    -0.5623884958164863      -1.7989730526230192      0.3775958798287755
-0.02194908778754411      -0.0603934520802086      0.060095426615922515     1.968967388835927E12     0.6264492217437065       -3.7784366164863927      -0.35254343982424974
-0.021216005879843233     -0.0622920453783423      0.06134316011669001      1.616319510071825E12     0.8587824330533133       -3.8020376126805298      -0.45454462909083687
-0.021216005879840554     -0.059833628181012344    0.06134316011669157      1.8538813145668313E12    0.5717474922622358       -3.8075798902365703      -0.330867837906137
-0.020480304092791092     -0.061732221479146046    0.06258927235034163      1.5284509677916829E12    0.8072369102791497       -3.826553374438662       -0.4327137156731142
-0.02048030409279076      -0.064190638676476       0.06258927235033918      1.281825991942775E12     1.0922434573427604       -3.821239862814465       -0.5653740080643694
-0.019741982426390033     -0.06363081477727973     0.06383376331687333      1.146683717788314E12     1.043854141275904        -3.8411281125805528      -0.543387783147037
-0.019741982426386702     -0.0660892319746097      0.06383376331687         7.496750468197357E11     1.3268322946120483       -3.836043366888199       -0.6850315767448477
-0.020480304092791418     -0.059273804281816084    0.06258927235034405      1.7832170540982417E12    0.513442949103794        -3.8327422014135073      -0.3081611536118299
-0.01974198242639337      -0.061172397579949786    0.06383376331687668      1.4058969663516782E12    0.752088573828015        -3.8470881736235536      -0.4098517198791972
-0.0197419824263967       -0.05871398038261981     0.06383376331688         1.6405060871603782E12    0.45153559226838136      -3.853923550017203       -0.28442338694132846
-0.022090253392744327     -0.05853929740075689     0.05985445729791768      2.0634465718467905E12    0.410067641201564        -3.775957617081948       -0.26297681155726704
-0.021357677983842128     -0.057979473501560644    0.06110250223915622      1.9687820322667385E12    0.35004591782665767      -3.806150060070883       -0.2405353974666332
-0.02062248269559434      -0.057419649602364356    0.06234892591327818      1.905916540424794E12     0.2864213807747802       -3.832361540486576       -0.21706290099980494
-0.022231321078370364     -0.056685142721305176    0.0596134281551018       2.1754950950225164E12    0.19331056035915717      -3.7725689876432256      -0.17647865624262296
-0.021499252168269516     -0.056125318822108916    0.06086178453680983      2.089229087276286E12     0.1279688430908152       -3.8038105998709173      -0.15327142997946802
-0.022372290844422226     -0.05483098804185345     0.0593723391874749       2.2846437344351826E12    -0.023822020783513895    -3.768270728170225       -0.09304897388031759
-0.021499252168270165     -0.0530189564540783      0.06086178453680871      2.1223689965566357E12    -0.2445375644744373      -3.806322852147642       -0.010814964568093336
-0.020622482695594663     -0.05431328723433376     0.062348925913277634     1.9390718922136128E12    -0.09415070026074455     -3.836465244700486       -0.06952479102565322
-0.0197419824263967       -0.05560761801458921     0.06383376331687998      1.6950414928773154E12    0.06289783776258423      -3.859618706168296       -0.13180363240439963
-0.02062248269559499      -0.051206924866303155    0.06234892591327707      1.9794825020937783E12    -0.4759197536937379      -3.8379614614943907      0.07774399012057548
-0.0197419824263967       -0.05250125564655862     0.06383376331688         1.7293185935274531E12    -0.32693688914068153     -3.8627063748993855      0.020546793304606126
-0.019741982426396697     -0.04939489327852801     0.06383376331687998      1.776816187819414E12     -0.7179685884414159      -3.8631865562104717      0.17262789018568883
-0.02248663292356711      -0.062360830919639364    0.0591766222803309       1.8105175296206406E12    0.839299416705876        -3.7511295670366342      -0.4435114934451076
-0.021755514520240153     -0.06426049903834471     0.060425487055779034     1.449224847527895E12     1.068121440212409        -3.777782090729814       -0.5531650517342527
-0.02302275315468914      -0.06432820975907014     0.0582569524632358       1.6298844048843018E12    1.0388336052410785       -3.722638977693029       -0.5395507477235888
-0.0222935982557361       -0.06622895269834711     0.05950694851336455      1.1135356750691558E12    1.2641444409445377       -3.752343028885251       -0.6568566750352919
-0.023557448480910206     -0.06629558859850092     0.057336417164637214     1.2390950001578677E12    1.225051787349314        -3.6929648484555773      -0.6406612026596935
-0.0210217762375616       -0.06616016715705005     0.061672730564108824     9.81955196273378E11      1.2980712766987823       -3.8000358683627917      -0.6716467997303432
-0.024398068742739133     -0.06343367877647235     0.05588245062065203      1.8337442198841042E12    0.9017534401916525       -3.6531463179215824      -0.47678708121517377
-0.025216671741357926     -0.06637295842436115     0.05445855008047291      1.3013180191160784E12    1.1640987717283682       -3.600555344666961       -0.6228565827700862
-0.026050254555248276     -0.06349583570295415     0.05300035599004049      1.8654824261163252E12    0.8568565389770378       -3.55493433236699        -0.46214512285868065
-0.025235122770220594     -0.060571768954443765    0.05442636205744937      2.177561635053121E12     0.5868582623056515       -3.609302896385067       -0.3329065603336689
-0.026880271134791165     -0.06061871298154715     0.051540039880390597     2.2160262395809233E12    0.5580174754973679       -3.5052884290644974      -0.3214272635102897
-0.0260686105633546       -0.0577098591324152      0.05296815147502925      2.4922401208829014E12    0.28036625369131135      -3.561434583846032       -0.20901964001517895
-0.026861952849655736     -0.06641990245146451     0.05157235768119882      1.3200950622685354E12    1.0985327823834377       -3.4984219895188313      -0.6052724932671448
-0.027688498215607517     -0.0635275668306791      0.05010993604431918      1.8943101680023923E12    0.8073466640384384       -3.446998495452883       -0.4477236948888532
-0.02849329180580365      -0.06643642067981104     0.04867783996681495      1.3927926047152705E12    1.0283538193145223       -3.386564783011187       -0.5879089341508692
-0.023331761865893797     -0.0594989210976108      0.05772536633664877      2.1590425948769688E12    0.5047112098175828       -3.715356263959287       -0.29979291429372573
-0.023865627756766948     -0.06146629993704158     0.05680434121940215      1.9957374890130708E12    0.7098903282181012       -3.684843060887359       -0.38575439742563805
-0.02470493612449729      -0.05860439011501299     0.05534960795635101      2.312826770378051E12     0.38935022046678436      -3.6430222530791667      -0.2519516476907021
-0.023612066173036007     -0.05579061173870736     0.05724220012422757      2.337079889450458E12     0.08858366379279192      -3.7062324978996832      -0.1336699023116409
-0.023471962979251994     -0.05764476641815909     0.0574838131428437       2.224072364783711E12     0.2968351869553195       -3.7112491959466247      -0.215197171826514
-0.02484417274601346      -0.05675023543556128     0.05510747088674568      2.3831386731153613E12    0.1899797552844003       -3.6372871164582854      -0.17232679102326132
-0.02308484021926819      -0.052313802752662834    0.05815023316026935      2.296714044994728E12     -0.3093975502403696      -3.7349771850165268      0.017632699805963003
-0.022214868526023657     -0.05050177116488769     0.059641550589873        2.1429394253578452E12    -0.5328550144118497      -3.7755494638279914      0.10246820999116449
-0.021341166036256003     -0.04868973957711252     0.061130564046611185     2.0003378234431406E12    -0.766979124111707       -3.809708228008788       0.19362866555281055
-0.023794868429390364     -0.0497966174634722      0.056926606150665006     2.3142766991960967E12    -0.5787005519607749      -3.6961925337514745      0.12766085828599164
-0.02292796371905336      -0.047984585875697046    0.05841979566053851      2.126993817649E12        -0.8048999366128118      -3.739284967396987       0.21509786934417036
-0.024502375474788753     -0.04727943217428155     0.0557014581586619       2.2701769982170337E12    -0.83173102594473        -3.6519167743750702      0.23703550155976835
-0.024320218469899176     -0.05327342644951675     0.05601745181372449      2.3493647806618516E12    -0.18867411637244988     -3.668395570411855       -0.02500480602827297
-0.02502584960203856      -0.0507562411603261      0.05479118252082262      2.3536696424663193E12    -0.44965936880124135     -3.625067534812672       0.083006775048843
-0.025547927964893847     -0.054233050146370664    0.05388008029294508      2.3933972106240957E12    -0.07896027558922758     -3.594906804636327       -0.06567827214280611
-0.019741982426393367     -0.04546470473413347     0.06383376331687665      1.3504122797888274E12    -1.199790302620273       -3.857093871749594       0.37712785143374694
-0.021341166036255348     -0.044759551032718       0.06113056404660931      1.557245990366351E12     -1.2229487475888843      -3.8016206051900947      0.3972198472565953
-0.01974198242639003      -0.04153451618973893     0.06383376331687332      9.685526195847666E11     -1.6529834553770364      -3.848734615855788       0.6101164438557238
-0.02134116603625469      -0.04082936248832346     0.061130564046607425     1.157326413258579E12     -1.6502898096439678      -3.7912664109384737      0.6292996601342988
-0.019741982426386702     -0.0376043276453444      0.06383376331687         7.723918974559362E11     -2.0775480467117062      -3.8381087885290555      0.8715936674516195
-0.022927963719055377     -0.044054397331302515    0.058419795660538065     1.620881046193064E12     -1.2350174693883091      -3.7292024062204776      0.4177802715036818
-0.03402589848881872      -0.06632962429826178     0.03860622638981785      1.1583893827793115E12    0.795079999773601        -2.9665547876824703      -0.5462262308073135
-0.032200314321971416     -0.06631406738501108     0.041974364551011244     1.228783424649062E12     0.8623489586196601       -3.110727141740063       -0.5552992504279703
-0.03329710056009055      -0.06320158445529642     0.03995627316511136      1.625168482298149E12     0.6068321836875685       -3.027355086932232       -0.4002075959730409
-0.0314640676310715       -0.06321160539559595     0.04332001691669889      1.7264273296432402E12    0.659178544314574        -3.170511941494729       -0.4082977414255363
-0.030356112094299722     -0.06634966617886082     0.045331569076676945     1.317595938356516E12     0.9401068984666336       -3.2507304735163016      -0.5691934848758222
-0.029612416641228056     -0.06327278204299593     0.046672827032758706     1.8207890741530635E12    0.7220138859424942       -3.309499773775872       -0.4212091017052267
-0.032565264274899766     -0.060073544612331053    0.041304659889689094     1.9382055905335884E12    0.3959014644222601       -3.086916307981321       -0.26805911911921976
-0.030724782583708976     -0.06010914340618083     0.04466400923167074      2.0470964239870164E12    0.43332522683021213      -3.2290576630487227      -0.27516639040355373
-0.031830389633246386     -0.0569455047693657      0.04265138656355106      2.2311806627525464E12    0.16228784197767596      -3.1452384508297384      -0.1497808002458503
-0.028812440437810467     -0.060363928193863985    0.048107676527896756     2.1423591743741414E12    0.49459209301179585      -3.370420442737687       -0.2966942991936448
-0.028009030743772655     -0.057455074344732036    0.04954053378160201      2.434199488744274E12     0.23884826681611115      -3.4291973328694207      -0.18606830456551549
-0.029929623767069927     -0.05720028955704888     0.04610161214444262      2.34691825972596E12      0.19948879624489946      -3.2904652885306565      -0.16632202464240597
-0.031143366534992507     -0.05375681043139397     0.04390392191010266      2.180339924852046E12     -0.09219651030066982     -3.197846395286328       -0.03065159610888318
-0.029235392881482053     -0.05401159521907715     0.04735007773875441      2.2818125099205425E12    -0.07838105796086013     -3.341700529471828       -0.04517959232198538
-0.02730759207085079      -0.0542663800067603      0.050784929623673994     2.36508843467688E12      -0.06240708931706216     -3.4790598702951745      -0.06291264406164146
-0.030453723256724335     -0.050568116093422225    0.04515499213951263      2.1834593714823433E12    -0.3615386052128865      -3.2493640748386405      0.09352212622773805
-0.028538541815879892     -0.0508229008811054      0.04859707821592458      2.287025664367926E12     -0.3711086548004906      -3.391845505508723       0.08100735819808932
-0.029761459798441886     -0.04737942175545048     0.04640459725178099      2.228249542369765E12     -0.6457384427589742      -3.299791489486678       0.2227403667640134
-0.02627152770512612      -0.047312762034671205    0.05261187337351411      2.2785875227430244E12    -0.7655150644150948      -3.5423063082843194      0.22872883370322927
-0.02679025777018572      -0.050789571020715754    0.05169881479361319      2.3148580864173223E12    -0.4082747949003412      -3.5123388345967212      0.08023625516115582
-0.028024555813010495     -0.04734609189506084     0.049512919737887136     2.256491317435488E12     -0.7035175366865095      -3.4249312133215217      0.22396378877131093
-0.026207795522914384     -0.03758166108350667     0.05272434496234215      1.2791978502362144E12    -1.650891129232164       -3.5274136802091935      0.786822015829201
-0.025640878961918474     -0.04081425144709831     0.05371763954747478      1.425264518908808E12     -1.4082551677633828      -3.5725462230887715      0.5753750920179833
-0.02407613111516751      -0.0375817533779783      0.05644124481019075      1.166234606077964E12     -1.8032000135958985      -3.656239436103449       0.8111046758851536
-0.023502825811301097     -0.040818075354640417    0.05743098199521077      1.2425655520744036E12    -1.5343174446389523      -3.6945366769074393      0.600350097500381
-0.02507240561254326      -0.044046841810689935    0.05471001061291469      1.7589758073845244E12    -1.1352018000009045      -3.6140472544773967      0.39211292059483915
-0.021920860082991614     -0.03758930889859087     0.06014438426170002      1.0122253705791663E12    -1.945418986089079       -3.7598044722100696      0.8393618930926264
-0.02683639054376656      -0.04408017167107959     0.05161739568370519      1.804017536158272E12     -1.049599042808703       -3.5008439652969443      0.3809237191556052
-0.027399696594027703     -0.04084758130748794     0.05062199447420355      1.4272146910071987E12    -1.303265614908614       -3.455750110818616       0.5613033569960545
-0.028584251352536876     -0.044113501531469215    0.0485154119040165       1.775881898587815E12     -0.9682147194175508      -3.3798760472444447      0.373276140640992
-0.03924196273861451      -0.06615968373954978     0.028723965609407893     9.310598652204745E11     0.627385964377449        -2.5418397778605617      -0.5052430486978462
-0.037521489201596474     -0.06624086503730041     0.03202726493033518      9.72639431702446E11      0.6787734025241766       -2.684988335642637       -0.5222885443998415
-0.03869428797740436      -0.06343117123514158     0.029780299168901087     1.3227511489436807E12    0.49299695225737966      -2.5875084977831393      -0.3852112654892642
-0.03696795841211015      -0.0635000853104689      0.03308072673568971      1.3878989154604397E12    0.5334291422618577       -2.7311064022157288      -0.39807509159411836
-0.03578280111833121      -0.0662975118902044      0.0353213518571385       1.0484976155257039E12    0.7346714143228938       -2.8265600055832727      -0.535949605102997
-0.035223414300568696     -0.06354446494094958     0.036371941908354355     1.468420601795467E12     0.5783719059183252       -2.873127418806879       -0.40755448270013306
-0.038144760413786664     -0.06070265873073338     0.030835681634532784     1.581364877411375E12     0.34666299526063404      -2.633260929538058       -0.2747722093072249
-0.03641257482021627      -0.0607593055836374      0.03413323744718275      1.6466262009158154E12    0.37613993712286237      -2.7773081806211617      -0.283454365814938
-0.03759338004776142      -0.0579741462263252      0.03189011300630299      1.8304429696349617E12    0.18838409338721204      -2.6790970731253165      -0.17392588015172825
-0.0344996550435208       -0.06041642509798423     0.037724697739207044     1.7832197961465325E12    0.38732628295663657      -2.9334644293041943      -0.2755463748004276
-0.033772857430010295     -0.057288385255018864    0.03907579351934394      2.0793912998710889E12    0.17359775681567188      -2.9925623616008363      -0.15740842488117365
-0.03569385423484865      -0.05763126574067204     0.035488702333594586     1.9642171380088347E12    0.1822965072855173       -2.83718190236603        -0.16545678484979964
-0.040953886671117795     -0.05981868474623094     0.025392535792492413     1.630982172836279E12     0.259545612135402        -2.3935346252301746      -0.22880582677549682
-0.04179158406852601      -0.06183587385864505     0.023745734582363634     1.3981605466726501E12    0.35258612254866006      -2.323003965704223       -0.29853667247658483
-0.040385293692954266     -0.06193235107733724     0.026504043062211505     1.4316174644574053E12    0.3798516149317883       -2.443364047075329       -0.31187336236145075
-0.04122616798599838      -0.0639611566446333      0.024858480330219562     1.2153136134850713E12    0.46876049020066185      -2.372671245664574       -0.38895834193786827
-0.04262477300543674      -0.06385306297105914     0.02209672244057124      1.2038170906290571E12    0.4368516640931164       -2.253367462741723       -0.3707234510795055
-0.042062533818544995     -0.06598996221192933     0.023210706666563996     8.593336831604607E11     0.5488943966007336       -2.3028726008172704      -0.4684992544161186
-0.04345345348184998      -0.06587025208347326     0.020445499367115223     8.786154969014008E11     0.5123422367687711       -2.184625116342676       -0.445366162584259
-0.039814652382119835     -0.06404601740844351     0.027614519667849998     1.251135215316688E12     0.5024650656791372       -2.4927990979521244      -0.4040191030022338
-0.04065870357079985      -0.06608643943062154     0.025970195413994895     8.84251781647456E11      0.5872423058036262       -2.4219441546565657      -0.4884582164539809
-0.039841515189931266     -0.05920383857292903     0.027562356852789797     1.6983339430736816E12    0.23862871582522824      -2.4895146333470635      -0.21142295111515683
-0.03926892575000327      -0.06131750490403533     0.028671843342885747     1.5093742684833516E12    0.3646591100658226       -2.538708751049281       -0.2937780057747959
-0.038721346315479147     -0.0585889923996271      0.029728215924059987     1.7439523806319756E12    0.21490820957583157      -2.5847021159787773      -0.19312963557390062
-0.04642909983904214      -0.06556190991369742     0.01442188033959485      6.732151054591581E11     0.4374640166885962       -1.9444397502060582      -0.39286362995750185
-0.04544389660114455      -0.06566766372038435     0.016432889814827538     7.373484099250366E11     0.46164360210323374      -2.0216081521018516      -0.4106582359081481
-0.046342449818727725     -0.06435224945948712     0.014599425351115143     9.368238424950083E11     0.3907380431295073       -1.9492085230297356      -0.3472501947745222
-0.04535665204805841      -0.0644565167244599      0.016610169361211385     9.912371534096243E11     0.41299850151001566      -2.0267799113921936      -0.36361028386466626
-0.04445201448208049      -0.06577044444364295     0.018440762824000995     7.788309564322833E11     0.4866030087966253       -2.101669940814057       -0.42815908011706705
-0.04436417539622263      -0.06455781090600435     0.018617776905248393     1.0739894248283038E12    0.43603878116927797      -2.107244686571063       -0.37967661121308316
-0.04625574785123118      -0.06314258900527679     0.014776946184911849     1.0771701019932156E12    0.34304470708534934      -1.953843286236964       -0.3044323446141984
-0.04526935554779015      -0.06324536972853545     0.016787424729871644     1.1349684322808281E12    0.36338603843172856      -2.0318176610660856      -0.3193579168438404
-0.046168993936552515     -0.061932928551066496    0.014954442840984968     1.2095157872881562E12    0.2943840085561225       -1.9583440398277432      -0.26441007947653056