% Model:              wentai_test_m96.mph
% Version:            COMSOL 5.5.0.292
% Date:               Jan 3 2022, 18:43
% Dimension:          3
% Nodes:              22177
% Expressions:        4
% Description:        表面
% X                       Y                        Z                        Color                    DeformX                  DeformY                  DeformZ
-0.04851473881663425      -0.06529392956856216     0.010108330297943599     8.510522093875076E11     0.9863128441798539       -4.553282294642101       -0.9104159036078688
-0.048514721764346014     -0.06353093245825568     0.010108366803403778     1.3131024563695247E12    0.8190902290993891       -4.545799821345993       -0.7507609997649544
-0.0487596548365826       -0.06529260895154608     0.009293285712236105     7.324168197386304E11     0.972335085278321        -4.485514747551047       -0.9057154869715028
-0.04875965131906641      -0.06353012398785107     0.009293312779510773     1.173530013026243E12     0.8066996636539784       -4.479682375680075       -0.7466425803880183
-0.04851471445622633      -0.061767935347949186    0.010108382448604845     1.6689456431095352E12    0.650897619569841        -4.538342135889442       -0.6058571141794011
-0.04875965754571876      -0.061767639024156044    0.009293318986526324     1.4384037534575762E12    0.6400942475805524       -4.47387479164866        -0.602320692061895
-0.04851471689227521      -0.060004938237642705    0.0101083772335468       2.048306507575885E12     0.4817350155912102       -4.530909238272449       -0.4757042468512093
-0.04875457941268432      -0.0652923126277529      0.008479800673698218     6.950095771951836E11     0.9597928391532546       -4.3957208205982425      -0.9038681182998259
-0.04875458942994017      -0.06353033981066938     0.008479818302787373     1.0789434994725952E12    0.7957446109850341       -4.391538550152406       -0.7453772089757712
-0.0484995125449394       -0.06529304059718265     0.007667875182329935     7.885104449951874E11     0.948686105804655        -4.283900513783685       -0.9048737975928383
-0.048499512669747995     -0.05999515833337221     0.007667875434681681     1.914858266154509E12     0.45862440726044335      -4.281158356925907       -0.4724867127390677
-0.04849951262814513      -0.061761119087975706    0.007667875350564432     1.49821533415147E12      0.6210796431393578       -4.281023711488904       -0.6009471897146207
-0.04875458945849632      -0.05999841830146241     0.008479818490634556     1.77812835059538E12      0.4655617632352646       -4.387168370640234       -0.4723222799925455
-0.048754589444218246     -0.06176437905606591     0.008479818396710965     1.348606201130686E12     0.6302038552922381       -4.388829111534855       -0.6010154688296397
-0.04849951258654226      -0.06352707984257917     0.007667875266447183     1.1646999569415698E12    0.7844335426540949       -4.281937763774829       -0.7450762179992106
-0.04875965753267205      -0.060001678269552564    0.009293319090256262     1.797660273488796E12     0.4732652993455203       -4.470418664422414       -0.4733947913632594
-0.04851471689227521      -0.05725706781259607     0.0101083772335468       2.1675642298732256E12    0.21798647303188357      -4.521849608429651       -0.2985561616626989
-0.048759657532672064     -0.057253807844505934    0.009293319090256238     1.8570482712306914E12    0.2143164451231336       -4.464111516413076       -0.2977590343642356
-0.048514716892275205     -0.054509197387549405    0.0101083772335468       2.240515339444486E12     -0.04577334369680543     -4.516427418368906       -0.13068248699524604
-0.04875965753267205      -0.05450593741945927     0.00929331909025621      1.8990489767408093E12    -0.04464368326861551     -4.461441808185787       -0.13139768788626935
-0.048514716892275205     -0.05176132696250277     0.0101083772335468       2.327942515629853E12     -0.3095444345948568      -4.514642668090214       0.027916777151149156
-0.048754589458496325     -0.05725054787641576     0.008479818490634504     1.8657981790860317E12    0.21141259734981788      -4.383613704464352       -0.2981988511830084
-0.048499512669748        -0.0517216157071306      0.00766787543468168      2.425098974879256E12     -0.2934004765176113      -4.281155204254293       0.03215710626677177
-0.048499512669748        -0.054479463249211144    0.007667875434681681     2.193094059072268E12     -0.04316215544855814     -4.280024582437299       -0.12891170332442575
-0.048754589458496325     -0.051734852792254676    0.00847981849063452      1.9603270357573748E12    -0.2986219865705111      -4.381966453421707       0.02857718652078049
-0.048754589458496325     -0.05449270033433522     0.00847981849063451      1.9164082535898884E12    -0.043823014705495836    -4.382224242589263       -0.13123793395907277
-0.048499512669748        -0.05723731079129168     0.00766787543468168      2.086133511182347E12     0.20751280581079337      -4.280025633327837       -0.29712630965970555
-0.04875965753267206      -0.05174808987737872     0.009293319090256226     1.9598102910025947E12    -0.3040033059295929      -4.45979560803368        0.027163743482239617
-0.048499512669748        -0.04344538320562743     0.007667875434681681     1.2530181352352122E12    -1.0444383663248316      -4.270245252451286       0.612403980316814
-0.048499512669748        -0.046204127372795153    0.007667875434681681     1.7016608669516565E12    -0.7933089258207425      -4.272724883544038       0.394205515314777
-0.048754589458496304     -0.04346860144873633     0.008479818490632321     1.1188925954452598E12    -1.05943912145213        -4.380751988546461       0.6069358499138664
-0.048754589458496325     -0.04622734561590407     0.008479818490632353     1.4623375246268618E12    -0.805205802484359       -4.380182340591148       0.3889406626983657
-0.048499512669748        -0.04896287153996288     0.00766787543468168      2.0548249651741626E12    -0.542962962551669       -4.27636153414504        0.20078989063142955
-0.04875458945849631      -0.04898608978307179     0.00847981849063238      1.720795730528918E12     -0.5517559607516038      -4.380769712144083       0.19572831580155456
-0.048759657532672036     -0.043491819691845235    0.009293319090254028     1.1078710109059954E12    -1.0758603229593955      -4.468243255562598       0.6060525763306606
-0.048759657532672064     -0.04625056385901299     0.00929331909025409      1.463829965045954E12     -0.818523125527943       -4.464624328559218       0.38826066690169614
-0.048514716892275205     -0.04351503793495414     0.0101083772335468       1.34871886372747E12      -1.093701970846629       -4.532719053499697       0.6097541595671964
-0.048514716892275205     -0.0490125639533199      0.0101083772335468       2.0040541617072642E12    -0.5726491788032922      -4.518677699156699       0.19966695351131597
-0.048759657532672064     -0.04899932686819586     0.009293319090255159     1.67772633459112E12      -0.562122665124357       -4.461214752928112       0.19661439630271008
-0.0485147168922752       -0.04626380094413702     0.0101083772335468       1.703687389067207E12     -0.8340350242205494      -4.524703160959859       0.3936127476499984
-0.048499512669738        -0.0381431649117068      0.00766787543467168      5.00819302051794E11      -1.5296656347292859      -4.269824990558411       1.1484255500783627
-0.04849951266974134      -0.039910571009680346    0.007667875434675014     4.730971305072603E11     -1.3667227372276112      -4.268549091267099       0.9543923814549038
-0.04875458338242887      -0.03819984180662221     0.008478867716049884     3.791937179228125E11     -1.5415111605334215      -4.384720842289391       1.1408347424662546
-0.048754586420463146     -0.03995200176076689     0.008479343103340566     3.897667416613346E11     -1.380753570538282       -4.382795386748581       0.9470193072342855
-0.04849951266974467      -0.041677977107653884    0.0076678754346783465    8.106101526699707E11     -1.2049803144261264      -4.268689178564723       0.7757185248677209
-0.04875458945849741      -0.04170416171491155     0.008479818490631246     7.513509475176743E11     -1.2211964552433323      -4.382285917796711       0.7685631840385925
-0.0487596514566046       -0.03822602641387987     0.009292368315671588     2.9672378944661084E11    -1.5587091069997785      -4.477936592141983       1.1413095904761974
-0.04875965753266982      -0.03996294022419568     0.00929331909024962      4.0961896901803564E11    -1.4001368245111738      -4.475361580351677       0.9477118886357181
-0.048514716892265206     -0.0382217187334798      0.0101083772335368       4.063929830019429E11     -1.5812594741283563      -4.549472240116187       1.149850094108191
-0.04851471689227187      -0.04175059820112936     0.010108377233543466     8.531521245190718E11     -1.2582517707708727      -4.5391896376349345      0.7738944561945765
-0.048759657532670926     -0.04172737995802046     0.009293319090251825     7.040640307151426E11     -1.2390138898171188      -4.472245512255341       0.7689363917067136
-0.048514716892268536     -0.03998615846730458     0.01010837723354013      5.210336548107558E11     -1.4207709385314486      -4.5447740331737645      0.953926434374908
-0.02194908778754411      -0.0603934520802086      0.060095426615922515     4.97423340946868E12      1.5826085620231989       -9.545524095386142       -0.8906360596162578
-0.021216005879843233     -0.0622920453783423      0.06134316011669001      4.0833335041275605E12    2.169555622886392        -9.605147664791431       -1.1483232749175132
-0.021216005879840554     -0.059833628181012344    0.06134316011669157      4.683489642535532E12     1.444414718951056        -9.619149208107919       -0.8358766441765736
-0.020480304092791092     -0.061732221479146046    0.06258927235034163      3.8613498180937305E12    2.039335354663564        -9.667082220887348       -1.0931714935834616
-0.02048030409279076      -0.064190638676476       0.06258927235033918      3.2382972467638853E12    2.7593518954915925       -9.653658612557258       -1.4283132852950342
-0.019741982426390033     -0.06363081477727973     0.06383376331687333      2.896885185323127E12     2.6371052021180796       -9.70390261202732        -1.3727691380666156
-0.019741982426386702     -0.0660892319746097      0.06383376331687         1.8939159100692083E12    3.3519973798388003       -9.691056938683632       -1.7306060907488217
-0.020480304092791418     -0.059273804281816084    0.06258927235034405      4.504969405342363E12     1.2971190307891318       -9.682717152211232       -0.7785123890463858
-0.01974198242639337      -0.061172397579949786    0.06383376331687668      3.5517397088126436E12    1.9000132413509545       -9.718959608364806       -1.0354148725589063
-0.0197419824263967       -0.05871398038261981     0.06383376331688         4.1444364357934336E12    1.1407214975374262       -9.73622792769609        -0.7185432942256943
-0.022090253392744327     -0.05853929740075689     0.05985445729791768      5.212917661581129E12     1.0359603578823204       -9.53926136004085        -0.6643624721409068
-0.021357677983842128     -0.057979473501560644    0.06110250223915622      4.973765140241805E12     0.8843265302208229       -9.615537005579597       -0.6076683733156923
-0.02062248269559434      -0.057419649602364356    0.06234892591327818      4.814947055392369E12     0.7235908574695434       -9.681755482499877       -0.5483694347999741
-0.022231321078370364     -0.056685142721305176    0.0596134281551018       5.495987615216825E12     0.48836352140276384      -9.530700611974549       -0.4458408163441515
-0.021499252168269516     -0.056125318822108916    0.06086178453680983      5.278052437483469E12     0.3232897091519111       -9.609626790330264       -0.38721203413340677
-0.022372290844422226     -0.05483098804185345     0.0593723391874749       5.771731546705127E12     -0.060181947415471095    -9.51984185118724        -0.23507109222599193
-0.021499252168270165     -0.0530189564540783      0.06086178453680871      5.361774313664779E12     -0.6177791111080428      -9.615973532931612       -0.02732201581536455
-0.020622482695594663     -0.05431328723433376     0.062348925913277634     4.898707944226565E12     -0.23785440105602162     -9.692122735263277       -0.1756415775707663
-0.0197419824263967       -0.05560761801458921     0.06383376331687998      4.282210092512666E12     0.15889980074624985      -9.750615690621537       -0.3329775980853208
-0.02062248269559499      -0.051206924866303155    0.06234892591327707      5.000797906156307E12     -1.2023235898526103      -9.695902651378574       0.1964058699869977
-0.0197419824263967       -0.05250125564655862     0.06383376331688         4.3688048732106943E12    -0.8259458263159501      -9.758416116898882       0.05190768838360897
-0.019741982426396697     -0.04939489327852801     0.06383376331687998      4.4887987957818E12       -1.813815383649174       -9.759629206528126       0.4361125651810948
-0.02248663292356711      -0.062360830919639364    0.0591766222803309       4.57393902780171E12      2.1203353710065045       -9.476537865113144       -1.1204500900961576
-0.021755514520240153     -0.06426049903834471     0.060425487055779034     3.6611996192877817E12    2.6984120626720642       -9.543870556630761       -1.3974696061097576
-0.02302275315468914      -0.06432820975907014     0.0582569524632358       4.117602712116921E12     2.6244217426593655       -9.404561639315174       -1.3630755748846923
-0.0222935982557361       -0.06622895269834711     0.05950694851336455      2.813142761508849E12     3.193628065127292        -9.479603452945117       -1.659427391610637
-0.023557448480910206     -0.06629558859850092     0.057336417164637214     3.1303452673825503E12    3.0948676769817824       -9.329595417992229       -1.6185125139818626
-0.0210217762375616       -0.06616016715705005     0.061672730564108824     2.4807289199334175E12    3.2793379660796314       -9.600090626508916       -1.6967919171996233
-0.024398068742739133     -0.06343367877647235     0.05588245062065203      4.632616982226262E12     2.2781139568546402       -9.229001235467251       -1.2045147329877475
-0.025216671741357926     -0.06637295842436115     0.05445855008047291      3.2875402628383716E12    2.9408811110208646       -9.096139829187951       -1.5735324215757602
-0.026050254555248276     -0.06349583570295415     0.05300035599004049      4.712797713860933E12     2.164690206285626        -8.980886745341246       -1.1675245223588897
-0.025235122770220594     -0.060571768954443765    0.05442636205744937      5.501208347936529E12     1.4825892959660574       -9.11823890723909        -0.8410271008462002
-0.026880271134791165     -0.06061871298154715     0.051540039880390597     5.598382085814342E12     1.409728360788948        -8.85546551579136        -0.8120267719945871
-0.0260686105633546       -0.0577098591324152      0.05296815147502925      6.296185576279725E12     0.7082936943160353       -8.997308433307753       -0.5280496175572216
-0.026861952849655736     -0.06641990245146451     0.05157235768119882      3.334977003492334E12     2.775240716689936        -8.838118721129163       -1.5291094585675715
-0.027688498215607517     -0.0635275668306791      0.05010993604431918      4.78562569345428E12      2.0396126273466018       -8.708206735960733       -1.1310914411279458
-0.02849329180580365      -0.06643642067981104     0.04867783996681495      3.518633953054187E12     2.597946493988996        -8.555532093815861       -1.485243624957297
-0.023331761865893797     -0.0594989210976108      0.05772536633664877      5.45442340427272E12      1.2750598999459524       -9.386163204596567       -0.7573715739053393
-0.023865627756766948     -0.06146629993704158     0.05680434121940215      5.041863136319491E12     1.793407147065518        -9.309077217794398       -0.9745374262922256
-0.02470493612449729      -0.05860439011501299     0.05534960795635101      5.84293079549385E12      0.983621610710231        -9.203424650570437       -0.636509426552327
-0.023612066173036007     -0.05579061173870736     0.05724220012422757      5.904201833225629E12     0.22379030870809474      -9.363113690312213       -0.3376923852312055
-0.023471962979251994     -0.05764476641815909     0.0574838131428437       5.618709138977972E12     0.7498994204963627       -9.375787453814896       -0.5436560137289745
-0.02484417274601346      -0.05675023543556128     0.05510747088674568      6.020560865787476E12     0.4799488559519302       -9.188935884352382       -0.4353518936749487
-0.02308484021926819      -0.052313802752662834    0.05815023316026935      5.802224962898781E12     -0.7816359174461508      -9.435731847327462       0.04454576795114654
-0.022214868526023657     -0.05050177116488769     0.059641550589873        5.413741712810795E12     -1.3461600381507546      -9.538230236028893       0.25886705710142693
-0.021341166036256003     -0.04868973957711252     0.061130564046611185     5.053485033846245E12     -1.9376314739073544      -9.62452606143291        0.4891671556434422
-0.023794868429390364     -0.0497966174634722      0.056926606150665006     5.846593773573398E12     -1.4619803436710923      -9.337749570327114       0.32251164234217095
-0.02292796371905336      -0.047984585875697046    0.05841979566053851      5.373458072239697E12     -2.0334314213877285      -9.446614665985603       0.5434051442321044
-0.024502375474788753     -0.04727943217428155     0.0557014581586619       5.735184002548998E12     -2.101215226090296       -9.225895020186199       0.5988265309470814
-0.024320218469899176     -0.05327342644951675     0.05601745181372449      5.935237347908923E12     -0.47665039992850494     -9.267525662857269       -0.06317003639375772
-0.02502584960203856      -0.0507562411603261      0.05479118252082262      5.946112788277699E12     -1.1359815647593667      -9.158065362261755       0.20970132665757607
-0.025547927964893847     -0.054233050146370664    0.05388008029294508      6.046477171111676E12     -0.1994785912905896      -9.081869833302273       -0.16592405617719158
-0.019741982426393367     -0.04546470473413347     0.06383376331687665      3.411567868915297E12     -3.031049189375201       -9.744237161555159       0.9527440468561417
-0.021341166036255348     -0.044759551032718       0.06113056404660931      3.934095138391447E12     -3.0895547346226575      -9.604094172181275       1.003502773203983
-0.01974198242639003      -0.04153451618973893     0.06383376331687332      2.4468697788037905E12    -4.175958208261953       -9.723119041376137       1.5413468073746173
-0.02134116603625469      -0.04082936248832346     0.061130564046607425     2.9237719949959316E12    -4.169153208498685       -9.577936207723589       1.589809669607953
-0.019741982426386702     -0.0376043276453444      0.06383376331687         1.9513058486210872E12    -5.248542440309429       -9.696274845991072       2.2019208467365226
-0.022927963719055377     -0.044054397331302515    0.058419795660538065     4.0948573848950215E12    -3.1200441370923064      -9.4211429324553         1.055444897678139
-0.03402589848881872      -0.06632962429826178     0.03860622638981785      2.926457391660891E12     2.0086231597049635       -7.494454209576347       -1.3799399532212215
-0.032200314321971416     -0.06631406738501108     0.041974364551011244     3.104294971334483E12     2.1785657927836173       -7.858679104485425       -1.4028612659763025
-0.03329710056009055      -0.06320158445529642     0.03995627316511136      4.1056888024326006E12    1.5330497290152947       -7.648054965764105       -1.0110507700343292
-0.0314640676310715       -0.06321160539559595     0.04332001691669889      4.3615006276133457E12    1.665293166546229        -8.009714388261262       -1.031489032256145
-0.030356112094299722     -0.06634966617886082     0.045331569076676945     3.3286634272854434E12    2.375006904211628        -8.212371732565263       -1.437962489888327
-0.029612416641228056     -0.06327278204299593     0.046672827032758706     4.599888192979107E12     1.8240350824265197       -8.36084154392918        -1.0641072056349052
-0.032565264274899766     -0.060073544612331053    0.041304659889689094     4.896519392635143E12     1.0001721218021074       -7.798525419125254       -0.6772019859990995
-0.030724782583708976     -0.06010914340618083     0.04466400923167074      5.171612024851419E12     1.0947163637853219       -8.15761936921049        -0.6951571976876505
-0.031830389633246386     -0.0569455047693657      0.04265138656355106      5.636666944418473E12     0.4099903380654016       -7.945865569659794       -0.37839360111553283
-0.028812440437810467     -0.060363928193863985    0.048107676527896756     5.412275815595151E12     1.249495815373881        -8.514746392021246       -0.7495434936450664
-0.028009030743772655     -0.057455074344732036    0.04954053378160201      6.149556610704119E12     0.6034061484059825       -8.663235377799072       -0.47006729635122024
-0.029929623767069927     -0.05720028955704888     0.04610161214444262      5.929056663443427E12     0.5039716963224381       -8.312754423249753       -0.4201819575373241
-0.031143366534992507     -0.05375681043139397     0.04390392191010266      5.508227185357634E12     -0.23291750005292722     -8.07876985055506        -0.07743561135291926
-0.029235392881482053     -0.05401159521907715     0.04735007773875441      5.764578979525893E12     -0.1980153046329074      -8.442190821575421       -0.11413791762054583
-0.02730759207085079      -0.0542663800067603      0.050784929623673994     5.974960263375084E12     -0.15766001538637947     -8.789203893555138       -0.15893720628027735
-0.030453723256724335     -0.050568116093422225    0.04515499213951263      5.516107892648227E12     -0.9133606880294471      -8.208919778004523       0.23626642440349832
-0.028538541815879892     -0.0508229008811054      0.04859707821592458      5.777749053939297E12     -0.9375376554464439      -8.56887286645528        0.2046501682900365
-0.029761459798441886     -0.04737942175545048     0.04640459725178099      5.629262008718141E12     -1.6313392258641581      -8.336315352008178       0.56271250615372
-0.02627152770512612      -0.047312762034671205    0.05261187337351411      5.756431643491064E12     -1.9339327967497113      -8.948984368670079       0.5778412647562207
-0.02679025777018572      -0.050789571020715754    0.05169881479361319      5.848062541302775E12     -1.0314310621369693      -8.873277066630129       0.20270211851060288
-0.028024555813010495     -0.04734609189506084     0.049512919737887136     5.700609651071844E12     -1.7773074633409984      -8.652457812610738       0.5658032564917668
-0.026207795522914384     -0.03758166108350667     0.05272434496234215      3.231657730934621E12     -4.170672331640876       -8.911360887169108       1.9877608844737384
-0.025640878961918474     -0.04081425144709831     0.05371763954747478      3.6006682627538506E12    -3.557697270346578       -9.02537994300545        1.4535791815635135
-0.02407613111516751      -0.0375817533779783      0.05644124481019075      2.946276903227302E12     -4.55545267156825        -9.236815428774854       2.0491065520601226
-0.023502825811301097     -0.040818075354640417    0.05743098199521077      3.1391129775422803E12    -3.8761703912748926      -9.3335663530304         1.5166739323351281
-0.02507240561254326      -0.044046841810689935    0.05471001061291469      4.443728360975443E12     -2.867878235163051       -9.130224654011148       0.9906010637212948
-0.021920860082991614     -0.03758930889859087     0.06014438426170002      2.5572009393738145E12    -4.914742707791101       -9.498453415048841       2.1204932061477173
-0.02683639054376656      -0.04408017167107959     0.05161739568370519      4.557517991709535E12     -2.6516186377726894      -8.844237396783427       0.9623336074181186
-0.027399696594027703     -0.04084758130748794     0.05062199447420355      3.6055950133319365E12    -3.292460504906437       -8.730316080066128       1.4180295351480217
-0.028584251352536876     -0.044113501531469215    0.0485154119040165       4.486438486186525E12     -2.4460161363141983      -8.538634235012488       0.9430134090413491
-0.03924196273861451      -0.06615968373954978     0.028723965609407893     2.352151241342596E12     1.5849750697710936       -6.4214899729181925      -1.2764034930282477
-0.037521489201596474     -0.06624086503730041     0.03202726493033518      2.457194356793677E12     1.714795966298904        -6.783128435127756       -1.3194657980118232
-0.03869428797740436      -0.06343117123514158     0.029780299168901087     3.341687117228922E12     1.2454659861105406       -6.536863581285248       -0.9731653035013356
-0.03696795841211015      -0.0635000853104689      0.03308072673568971      3.506270948632907E12     1.3476104662446804       -6.899637235034308       -1.0056633905426082
-0.03578280111833121      -0.0662975118902044      0.0353213518571385       2.648836084578391E12     1.8560119962768606       -7.140783180680473       -1.353977951409481
-0.035223414300568696     -0.06354446494094958     0.036371941908354355     3.7096941564651904E12    1.4611500798289656       -7.258427172126521       -1.0296113259979631
-0.038144760413786664     -0.06070265873073338     0.030835681634532784     3.9950270636338257E12    0.8757801995664982       -6.652448672176326       -0.694161371755605
-0.03641257482021627      -0.0607593055836374      0.03413323744718275      4.1598977758502466E12    0.9502482633069664       -7.016357517464882       -0.7160952408545749
-0.03759338004776142      -0.0579741462263252      0.03189011300630299      4.624276981603711E12     0.4759177101389664       -6.768245245591426       -0.4393916977910561
-0.0344996550435208       -0.06041642509798423     0.037724697739207044     4.504976332649122E12     0.9785085054451524       -7.410857514622462       -0.696117158268264
-0.033772857430010295     -0.057288385255018864    0.03907579351934394      5.253199079823165E12     0.43856275453782073      -7.56015755429179        -0.39766338969022735
-0.03569385423484865      -0.05763126574067204     0.035488702333594586     4.962232775810139E12     0.46053854522900917      -7.167617446269001       -0.4179960885820686
-0.040953886671117795     -0.05981868474623094     0.025392535792492413     4.1203760206338936E12    0.6556941787758562       -6.046824323707746       -0.5780357736406513
-0.04179158406852601      -0.06183587385864505     0.023745734582363634     3.5321950696024346E12    0.8907438895773573       -5.868641604686788       -0.7541979103630451
-0.040385293692954266     -0.06193235107733724     0.026504043062211505     3.6167178093808936E12    0.9596251335750449       -6.17270917905003        -0.7878906006383379
-0.04122616798599838      -0.0639611566446333      0.024858480330219562     3.0702659746730303E12    1.1842370292621196       -5.994116838424752       -0.9826316019105373
-0.04262477300543674      -0.06385306297105914     0.02209672244057124      3.0412221274143486E12    1.1036252579463353       -5.692717807513054       -0.9365645091611978
-0.042062533818544995     -0.06598996221192933     0.023210706666563996     2.170948254852898E12     1.386680582516672        -5.817783419646698       -1.183577065258496
-0.04345345348184998      -0.06587025208347326     0.020445499367115223     2.2196602054073354E12    1.294338283882791        -5.519052932186546       -1.1251355700351098
-0.039814652382119835     -0.06404601740844351     0.027614519667849998     3.16076265310209E12      1.269385430573457        -6.297597728786845       -1.0206798404342035
-0.04065870357079985      -0.06608643943062154     0.025970195413994895     2.23389924058793E12      1.4835595111461057       -6.118595766557247       -1.2339997062562085
-0.039841515189931266     -0.05920383857292903     0.027562356852789797     4.290527861448917E12     0.6028514932960345       -6.289300133984779       -0.5341211403398424
-0.03926892575000327      -0.06131750490403533     0.028671843342885747     3.8131560513769004E12    0.9212440686036757       -6.413580010437749       -0.7421760155214997
-0.038721346315479147     -0.0585889923996271      0.029728215924059987     4.405774440689864E12     0.5429260037504045       -6.529773774612672       -0.4879064483899772
-0.04642909983904214      -0.06556190991369742     0.01442188033959485      1.7007539526973665E12    1.1051722539813227       -4.912268848570974       -0.9924975927168574
-0.04544389660114455      -0.06566766372038435     0.016432889814827538     1.8627749326020896E12    1.1662575224696303       -5.107220600967867       -1.037452386750192
-0.046342449818727725     -0.06435224945948712     0.014599425351115143     2.366712868126917E12     0.9871276890587769       -4.924316274666757       -0.8772636510614943
-0.04535665204805841      -0.0644565167244599      0.016610169361211385     2.5041780748195713E12    1.043364636612864        -5.12028609813856        -0.9185944024955415
-0.04445201448208049      -0.06577044444364295     0.018440762824000995     1.967572944962811E12     1.2293128657701198       -5.309481962173058       -1.0816650458562758
-0.04436417539622263      -0.06455781090600435     0.018617776905248393     2.713236444978454E12     1.1015716589791325       -5.323565530418659       -0.9591830190023382
-0.04625574785123118      -0.06314258900527679     0.014776946184911849     2.721271839923299E12     0.8666392610130703       -4.936025150152138       -0.7690922399982899
-0.04526935554779015      -0.06324536972853545     0.016787424729871644     2.867288674516216E12     0.9180278876329366       -5.133013044698849       -0.8067989488330499
-0.046168993936552515     -0.061932928551066496    0.014954442840984968     3.055618834760217E12     0.7437069698442028       -4.9473954750271165      -0.6679833595272447