% Model:              wentai_test_m23.mph
% Version:            COMSOL 5.5.0.292
% Date:               Jan 3 2022, 17:24
% Dimension:          3
% Nodes:              22177
% Expressions:        4
% Description:        表面
% X                       Y                        Z                        Color                    DeformX                  DeformY                  DeformZ
-0.04851473881663425      -0.06529392956856216     0.010108330297943599     2.0389792497338873E11    0.23630411868831674      -1.090890548725428       -0.21812047671694443
-0.048514721764346014     -0.06353093245825568     0.010108366803403778     3.145974632071944E11     0.1962403671961963       -1.089097872833193       -0.17986982270777052
-0.0487596548365826       -0.06529260895154608     0.009293285712236105     1.754748628968625E11     0.23295528062168172      -1.074654573917107       -0.2169943352322917
-0.04875965131906641      -0.06353012398785107     0.009293312779510773     2.8115823202096674E11    0.193271794228061        -1.073257234824269       -0.17888311806639012
-0.04851471445622633      -0.061767935347949186    0.010108382448604845     3.9985155994878076E11    0.15594422120087242      -1.0873111356941707      -0.14515326681938526
-0.04875965754571876      -0.061767639024156044    0.009293318986526324     3.4461756560497363E11    0.15335591333123677      -1.0718658344846437      -0.1443059990212771
-0.04851471689227521      -0.060004938237642705    0.0101083772335468       4.9074010030704205E11    0.11541568070234498      -1.085530337308361       -0.1139708090517886
-0.04875457941268432      -0.0652923126277529      0.008479800673698218     1.6651271104586188E11    0.2299503674907657       -1.053141445605191       -0.21655173648842435
-0.04875458942994017      -0.06353033981066938     0.008479818302787373     2.5849687983656836E11    0.19064714619564466      -1.0521394433117504      -0.17857995616579508
-0.0484995125449394       -0.06529304059718265     0.007667875182329935     1.8891396060129034E11    0.22728937929556858      -1.0263511637896807      -0.21679268048534242
-0.048499512669747995     -0.05999515833337221     0.007667875434681681     4.587681258293816E11     0.10987876412944449      -1.0256941887095279      -0.1131999415047149
-0.04849951262814513      -0.061761119087975706    0.007667875350564432     3.589474234654297E11     0.14880033102227508      -1.0256619299070404      -0.1439769307507031
-0.04875458945849632      -0.05999841830146241     0.008479818490634556     4.260099169247708E11     0.11154083899645331      -1.051092421137767       -0.1131605461593782
-0.048754589444218246     -0.06176437905606591     0.008479818396710965     3.2310356871365356E11    0.1509863401814436       -1.051490306976823       -0.14399328928880953
-0.04849951258654226      -0.06352707984257917     0.007667875266447183     2.790426977520459E11     0.18793720274431644      -1.0258809216004248      -0.1785078437442456
-0.04875965753267205      -0.060001678269552564    0.009293319090256262     4.306894401136453E11     0.11338647785408681      -1.0710378040040447      -0.11341750200840275
-0.04851471689227521      -0.05725706781259607     0.0101083772335468       5.1931226291336523E11    0.05222592577346432      -1.0833598009937568      -0.07152908034927183
-0.048759657532672064     -0.057253807844505934    0.009293319090256238     4.4491781455903424E11    0.05134664825484129      -1.0695267164614133      -0.07133810193427749
-0.048514716892275205     -0.054509197387549405    0.0101083772335468       5.3679013289809735E11    -0.010966530258482435    -1.0820607346261168      -0.03130934583199396
-0.04875965753267205      -0.05450593741945927     0.00929331909025621      4.5498048357798303E11    -0.010695882447470353    -1.0688870988657457      -0.0314806960453911
-0.048514716892275205     -0.05176132696250277     0.0101083772335468       5.57736227172443E11      -0.07416168739349528     -1.0816331382054403      0.006688394500045
-0.048754589458496325     -0.05725054787641576     0.008479818490634504     4.470141466472899E11     0.05065093472684291      -1.050240782367108       -0.07144347471364441
-0.048499512669748        -0.0517216157071306      0.00766787543468168      5.810132955124111E11     -0.0702938641067345      -1.0256934333814982      0.007704306683086742
-0.048499512669748        -0.054479463249211144    0.007667875434681681     5.254287844864066E11     -0.010340933073515614    -1.0254225552382357      -0.03088509557785178
-0.048754589458496325     -0.051734852792254676    0.00847981849063452      4.696616852035978E11     -0.07154485088943172     -1.0498461284715535      0.006846617577960629
-0.048754589458496325     -0.05449270033433522     0.00847981849063451      4.591394769859735E11     -0.010499263937381473    -1.0499078904596946      -0.031442421667010875
-0.048499512669748        -0.05723731079129168     0.00766787543468168      4.9980281991197797E11    0.04971660967187737      -1.0254228070142455      -0.07118651164045232
-0.04875965753267206      -0.05174808987737872     0.009293319090256226     4.6953788177275757E11    -0.07283412531835198     -1.068492696746201       0.0065079801836133815
-0.048499512669748        -0.04344538320562743     0.007667875434681681     3.0020226128166095E11    -0.250230025037592       -1.0230795907642445      0.1467217867912525
-0.048499512669748        -0.046204127372795153    0.007667875434681681     4.0768958231970734E11    -0.19006359663992084     -1.0236736690463808      0.09444507126784092
-0.048754589458496304     -0.04346860144873633     0.008479818490632321     2.6806801740388715E11    -0.25382395595046847     -1.0495551629285296      0.14541171388333735
-0.048754589458496325     -0.04622734561590407     0.008479818490632353     3.503516982752702E11     -0.19291389000491205     -1.0494186847727636      0.09318370032956556
-0.048499512669748        -0.04896287153996288     0.00766787543468168      4.923018141050177E11     -0.130084876329635       -1.0245449499187984      0.04810591123178566
-0.04875458945849631      -0.04898608978307179     0.00847981849063238      4.1227397671352954E11    -0.1321915321467409      -1.049559409207279       0.04689324226315011
-0.048759657532672036     -0.043491819691845235    0.009293319090254028     2.6542742944366827E11    -0.2577582021415413      -1.0705166122977992      0.1452000962542228
-0.048759657532672064     -0.04625056385901299     0.00929331909025409      3.507092621249538E11     -0.19610449864809956     -1.0696495777041304      0.09302078467009083
-0.048514716892275205     -0.04351503793495414     0.0101083772335468       3.2313056079367194E11    -0.26203276361081057     -1.0859639388720532      0.14608693390390884
-0.048514716892275205     -0.0490125639533199      0.0101083772335468       4.801379757851952E11     -0.13719719896758187     -1.0825998643974086      0.047836874213633654
-0.048759657532672064     -0.04899932686819586     0.009293319090255159     4.0195526727974884E11    -0.13467522173404986     -1.0688327002100477      0.04710553238300245
-0.0485147168922752       -0.04626380094413702     0.0101083772335468       4.0817510324195374E11    -0.19982089104002024     -1.0840434646196127      0.09430305401492162
-0.048499512669738        -0.0381431649117068      0.00766787543467168      1.1998795766879211E11    -0.3664823913171882      -1.0229789030191325      0.2751436210906096
-0.04849951266974134      -0.039910571009680346    0.007667875434675014     1.1334618740964995E11    -0.32744398882732495     -1.0226732188142182      0.22865650781896357
-0.04875458338242887      -0.03819984180662221     0.008478867716049884     9.084849483218782E10     -0.3693203818721031      -1.0505060341368326      0.2733249901018181
-0.048754586420463146     -0.03995200176076689     0.008479343103340566     9.338161510083582E10     -0.3308055426385191      -1.050044727080623       0.22689004212183492
-0.04849951266974467      -0.041677977107653884    0.0076678754346783465    1.942086822261782E11     -0.2886932000674595      -1.022706781395922       0.18584922971917783
-0.04875458945849741      -0.04170416171491155     0.008479818490631246     1.8001116433824347E11    -0.2925783171349329      -1.0499226668110317      0.18413492931371195
-0.0487596514566046       -0.03822602641387987     0.009292368315671588     7.10900744871152E10      -0.3734407232094509      -1.0728389741843622      0.2734387557707536
-0.04875965753266982      -0.03996294022419568     0.00929331909024962      9.8137877900401E10       -0.3354494472321461      -1.0722220442768577      0.22705597308243322
-0.048514716892265206     -0.0382217187334798      0.0101083772335368       9.736498541800903E10     -0.37884341532923166     -1.0899777231617216      0.2754849180974162
-0.04851471689227187      -0.04175059820112936     0.010108377233543466     2.0440102963787808E11    -0.3014561531390161      -1.0875141829862853      0.18541221326663865
-0.048759657532670926     -0.04172737995802046     0.009293319090251825     1.686820071981851E11     -0.2968470774978763      -1.0714754862961666      0.18422434365077503
-0.048514716892268536     -0.03998615846730458     0.01010837723354013      1.2483097967936241E11    -0.34039303704515644     -1.0888521110828415      0.2285448746644744
-0.02194908778754411      -0.0603934520802086      0.060095426615922515     1.191743419873165E12     0.37916663423033703      -2.2869484790034247      -0.21338155576836654
-0.021216005879843233     -0.0622920453783423      0.06134316011669001      9.782986510899806E11     0.5197893674258123       -2.3012332924932193      -0.2751191177080501
-0.021216005879840554     -0.059833628181012344    0.06134316011669157      1.122086059113147E12     0.3460576926904468       -2.304587828909382       -0.200262112497632
-0.020480304092791092     -0.061732221479146046    0.06258927235034163      9.25115059696276E11      0.48859076152511316      -2.316071779876923       -0.2619056701084877
-0.02048030409279076      -0.064190638676476       0.06258927235033918      7.758420479574597E11     0.6610947242672122       -2.3128557070510922      -0.34220005762957784
-0.019741982426390033     -0.06363081477727973     0.06383376331687333      6.940454083168944E11     0.6318064540057042       -2.324893331912542       -0.3288926057011877
-0.019741982426386702     -0.0660892319746097      0.06383376331687         4.53750686350925E11      0.803082704754537        -2.321815722677044       -0.41462437553295
-0.020480304092791418     -0.059273804281816084    0.06258927235034405      1.0793155856608132E12    0.31076810076658923      -2.3198176488361577      -0.18651859305159632
-0.01974198242639337      -0.061172397579949786    0.06383376331687668      8.509376377530806E11     0.45521150524044673      -2.3285007372814457      -0.24806814633362417
-0.0197419824263967       -0.05871398038261981     0.06383376331688         9.929378951232106E11     0.27329785845876436      -2.3326379387837526      -0.1721509974302595
-0.022090253392744327     -0.05853929740075689     0.05985445729791768      1.2489281885545488E12    0.2481988354469939       -2.2854480319949046      -0.1591701754874845
-0.021357677983842128     -0.057979473501560644    0.06110250223915622      1.1916312303727688E12    0.21186989760231964      -2.303722405387654       -0.14558721432275973
-0.02062248269559434      -0.057419649602364356    0.06234892591327818      1.153581064248132E12     0.17336030937367794      -2.3195872488012217      -0.1313801769827337
-0.022231321078370364     -0.056685142721305176    0.0596134281551018       1.3167470315487388E12    0.11700376016606741      -2.2833970194391697      -0.10681602883614812
-0.021499252168269516     -0.056125318822108916    0.06086178453680983      1.264533395267681E12     0.07745482601660905      -2.3023064163187117      -0.09276954977743301
-0.022372290844422226     -0.05483098804185345     0.0593723391874749       1.3828106817383826E12    -0.01441859161244247     -2.2807954413362204      -0.056319115814357355
-0.021499252168270165     -0.0530189564540783      0.06086178453680871      1.2845917614173323E12    -0.14800957862209496     -2.303826990065256       -0.006545899637471741
-0.020622482695594663     -0.05431328723433376     0.062348925913277634     1.1736487771793752E12    -0.05698595026149246     -2.3220710697731715      -0.042080794606580985
-0.0197419824263967       -0.05560761801458921     0.06383376331687998      1.0259461670145632E12    0.03806974382712751      -2.336085006981107       -0.0797758828179153
-0.02062248269559499      -0.051206924866303155    0.06234892591327707      1.1981078305353381E12    -0.2880566931900549      -2.322976674674702       0.04705557295259674
-0.0197419824263967       -0.05250125564655862     0.06383376331688         1.0466928332043235E12    -0.19788285409790135     -2.3379538591080427      0.012436216977453896
-0.019741982426396697     -0.04939489327852801     0.06383376331687998      1.0754413771267577E12    -0.43455993531632237     -2.33824449516456        0.10448530195584811
-0.02248663292356711      -0.062360830919639364    0.0591766222803309       1.0958395576889045E12    0.5079970154278972       -2.2704205280165612      -0.26844116718566186
-0.021755514520240153     -0.06426049903834471     0.060425487055779034     8.771624079423676E11     0.6464945560051367       -2.28655231867731        -0.33481042616661616
-0.02302275315468914      -0.06432820975907014     0.0582569524632358       9.865089821587054E11     0.6287677085228175       -2.2531762239358843      -0.3265701895281053
-0.0222935982557361       -0.06622895269834711     0.05950694851336455      6.739821192929106E11     0.7651400564818214       -2.2711549917675864      -0.39757114555033046
-0.023557448480910206     -0.06629558859850092     0.057336417164637214     7.499785529146989E11     0.7414787135150979       -2.2352155667613935      -0.38776862279569707
-0.0210217762375616       -0.06616016715705005     0.061672730564108824     5.943413031599586E11     0.785674720228301        -2.3000217104061362      -0.4065230631294148
-0.024398068742739133     -0.06343367877647235     0.05588245062065203      1.1098978175852925E12    0.54579813492385         -2.2111148772210374      -0.28858165452761453
-0.025216671741357926     -0.06637295842436115     0.05445855008047291      7.876398538692244E11     0.7045860987941155       -2.1792834986642577      -0.3769921423348893
-0.026050254555248276     -0.06349583570295415     0.05300035599004049      1.12910778451927E12      0.5186236947144237       -2.15167078068559        -0.2797194165739033
-0.025235122770220594     -0.060571768954443765    0.05442636205744937      1.3179978320887886E12    0.35520368510364664      -2.184578069441624       -0.20149607607708642
-0.026880271134791165     -0.06061871298154715     0.051540039880390597     1.3412790400983865E12    0.3377474194057767       -2.1216219444678655      -0.1945480806304717
-0.0260686105633546       -0.0577098591324152      0.05296815147502925      1.5084611261982925E12    0.1696953640544883       -2.155605143423155       -0.1265118874441127
-0.026861952849655736     -0.06641990245146451     0.05157235768119882      7.990049063039844E11     0.6649014210287048       -2.117465941584735       -0.3663491407918379
-0.027688498215607517     -0.0635275668306791      0.05010993604431918      1.1465561546109556E12    0.4886571914605692       -2.0863411951677557      -0.2709906575379484
-0.02849329180580365      -0.06643642067981104     0.04867783996681495      8.430060504225677E11     0.6224246802188654       -2.0497628955228246      -0.3558396181665427
-0.023331761865893797     -0.0594989210976108      0.05772536633664877      1.306788939350115E12     0.30548310068211326      -2.2487682656216914      -0.18145360609848182
-0.023865627756766948     -0.06146629993704158     0.05680434121940215      1.2079463752454407E12    0.4296704618543016       -2.2302997479682714      -0.2334829248504741
-0.02470493612449729      -0.05860439011501299     0.05534960795635101      1.3998688350731436E12    0.23565934395683033      -2.2049871537616013      -0.1524970499903972
-0.023612066173036007     -0.05579061173870736     0.05724220012422757      1.414548354518295E12     0.053616428022556846     -2.2432459861627034      -0.08090546724119768
-0.023471962979251994     -0.05764476641815909     0.0574838131428437       1.3461490632531626E12    0.17966340260112676      -2.2462824086658046      -0.13025091985506693
-0.02484417274601346      -0.05675023543556128     0.05510747088674568      1.4424260393741802E12    0.11498774657820043      -2.201515886858348       -0.10430305778444945
-0.02308484021926819      -0.052313802752662834    0.05815023316026935      1.3901163960292898E12    -0.1872669384318853      -2.2606440862639325      0.010672423538713284
-0.022214868526023657     -0.05050177116488769     0.059641550589873        1.29704228411876E12      -0.3225175088907668      -2.285200991866633       0.06202023234956246
-0.021341166036256003     -0.04868973957711252     0.061130564046611185     1.2107307882006555E12    -0.46422420690795574     -2.3058760333497443      0.11719629757359451
-0.023794868429390364     -0.0497966174634722      0.056926606150665006     1.4007464235785728E12    -0.35026612372395727     -2.237169165754902       0.07726841421429798
-0.02292796371905336      -0.047984585875697046    0.05841979566053851      1.2873909952434783E12    -0.4871762776320677      -2.2632514282312677      0.13019081565911073
-0.024502375474788753     -0.04727943217428155     0.0557014581586619       1.37405449929865E12      -0.5034161474886584      -2.2103706798091296      0.14346885621239672
-0.024320218469899176     -0.05327342644951675     0.05601745181372449      1.4219839465725374E12    -0.11419749159269124     -2.220344687940052       -0.015134487895291865
-0.02502584960203856      -0.0507562411603261      0.05479118252082262      1.4245895208278953E12    -0.27216224968056846     -2.194119824280658       0.05024094277312802
-0.025547927964893847     -0.054233050146370664    0.05388008029294508      1.4486351541879443E12    -0.0477917458328529      -2.1758646454853334      -0.03975263844570848
-0.019741982426393367     -0.04546470473413347     0.06383376331687665      8.173548011475869E11     -0.7261888676597312      -2.3345568177264333      0.22826159432258886
-0.021341166036255348     -0.044759551032718       0.06113056404660931      9.425436260083557E11     -0.7402058211908616      -2.3009808932209688      0.24042253916340914
-0.01974198242639003      -0.04153451618973893     0.06383376331687332      5.86229217282668E11      -1.0004899865061936      -2.3294972681048645      0.3692810055624176
-0.02134116603625469      -0.04082936248832346     0.061130564046607425     7.004870398063694E11     -0.9988596219768213      -2.294713880908752       0.38089189962631187
-0.019741982426386702     -0.0376043276453444      0.06383376331687         4.67500359127533E11      -1.25746329185571        -2.323065846299855       0.5275435356753345
-0.022927963719055377     -0.044054397331302515    0.058419795660538065     9.81059580864269E11      -0.7475105738544707      -2.2571488254118437      0.2528670064719992
-0.03402589848881872      -0.06632962429826178     0.03860622638981785      7.011304160576123E11     0.4812326315298723       -1.7955463193352375      -0.3306106135026469
-0.032200314321971416     -0.06631406738501108     0.041974364551011244     7.437373361463309E11     0.5219480539948818       -1.8828085336565394      -0.3361021780123999
-0.03329710056009055      -0.06320158445529642     0.03995627316511136      9.836546079588005E11     0.3672931638666319       -1.8323465004693507      -0.24223091344844108
-0.0314640676310715       -0.06321160539559595     0.04332001691669889      1.0449428576818815E12    0.3989764874068904       -1.9189940703592132      -0.24712758043506897
-0.030356112094299722     -0.06634966617886082     0.045331569076676945     7.974922786653405E11     0.5690120702245461       -1.9675473923857347      -0.34451184623369846
-0.029612416641228056     -0.06327278204299593     0.046672827032758706     1.1020565451622468E12    0.43700840471180363      -2.0031182846569697      -0.2549423511332425
-0.032565264274899766     -0.060073544612331053    0.041304659889689094     1.173124436683353E12     0.23962457059120898      -1.8683967132186627      -0.1622463090162332
-0.030724782583708976     -0.06010914340618083     0.04466400923167074      1.239032046421225E12     0.26227579520671634      -1.954429638677086       -0.16654807847973602
-0.031830389633246386     -0.0569455047693657      0.04265138656355106      1.3504514541310427E12    0.09822685170360346      -1.903696957583174       -0.09065680020602329
-0.028812440437810467     -0.060363928193863985    0.048107676527896756     1.296691079566624E12     0.29935837210908456      -2.039991321143147       -0.1795781285405549
-0.028009030743772655     -0.057455074344732036    0.04954053378160201      1.4733312698963325E12    0.14456605620986934      -2.075566807284503       -0.11262028966898502
-0.029929623767069927     -0.05720028955704888     0.04610161214444262      1.4205031575813762E12    0.12074321875957442      -1.9915974120045097      -0.10066859392295524
-0.031143366534992507     -0.05375681043139397     0.04390392191010266      1.3196794285571157E12    -0.055803151034078215    -1.9355386081832908      -0.01855228189398168
-0.029235392881482053     -0.05401159521907715     0.04735007773875441      1.3810970458515237E12    -0.047441166727659904    -2.0226082157398153      -0.027345542762500348
-0.02730759207085079      -0.0542663800067603      0.050784929623673994     1.4315008950594985E12    -0.03777271202691761     -2.105746764154998       -0.03807870566011687
-0.030453723256724335     -0.050568116093422225    0.04515499213951263      1.3215675146812966E12    -0.21882599799998909     -1.9667203616043267      0.056605497434488866
-0.028538541815879892     -0.0508229008811054      0.04859707821592458      1.3842523761811255E12    -0.22461839644312342     -2.0529591222960404      0.049030769414383474
-0.029761459798441886     -0.04737942175545048     0.04640459725178099      1.3486773549685293E12    -0.39084168919412926     -1.9972422178462825      0.13481653777938837
-0.02627152770512612      -0.047312762034671205    0.05261187337351411      1.379145079937292E12     -0.4633380654923278      -2.144027502947071       0.1384411361914715
-0.02679025777018572      -0.050789571020715754    0.05169881479361319      1.4010983158462432E12    -0.24711369177943554     -2.125889295184461       0.048564049155461204
-0.028024555813010495     -0.04734609189506084     0.049512919737887136     1.365771060933273E12     -0.425813246060818       -2.0729846822927884      0.13555703004713537
-0.026207795522914384     -0.03758166108350667     0.05272434496234215      7.74251330658269E11      -0.9992235785491551      -2.1350135438449835      0.47623437809317887
-0.025640878961918474     -0.04081425144709831     0.05371763954747478      8.626601038125637E11     -0.8523649702556523      -2.1623306092799703      0.34825334522674656
-0.02407613111516751      -0.0375817533779783      0.05644124481019075      7.058788407458073E11     -1.0914105349080807      -2.212987027696772       0.4909317776063405
-0.023502825811301097     -0.040818075354640417    0.05743098199521077      7.520791501640951E11     -0.9286658220779405      -2.2361669366111103      0.3633697959194175
-0.02507240561254326      -0.044046841810689935    0.05471001061291469      1.0646432521413523E12    -0.6870958265688201      -2.187449654601352       0.2373315045998192
-0.021920860082991614     -0.03758930889859087     0.06014438426170002      6.126627244890002E11     -1.177490439343599       -2.275671128515062       0.5080348301337257
-0.02683639054376656      -0.04408017167107959     0.05161739568370519      1.0919053511472495E12    -0.6352836314052248      -2.1189318742896224      0.2305590931996311
-0.027399696594027703     -0.04084758130748794     0.05062199447420355      8.638404711401536E11     -0.7888186619247923      -2.091638225518568       0.3397362424472956
-0.028584251352536876     -0.044113501531469215    0.0485154119040165       1.074875886299568E12     -0.5860246988064506      -2.045714450185668       0.22593029567603212
-0.03924196273861451      -0.06615968373954978     0.028723965609407893     5.63536234357234E11      0.3797336100901308       -1.5384819712162565      -0.30580500326868787
-0.037521489201596474     -0.06624086503730041     0.03202726493033518      5.887028140713795E11     0.410836533184049        -1.6251245193707575      -0.31612201382894306
-0.03869428797740436      -0.06343117123514158     0.029780299168901087     8.006125377314425E11     0.29839289220558846      -1.5661235648606455      -0.23315418709727914
-0.03696795841211015      -0.0635000853104689      0.03308072673568971      8.400440806298198E11     0.32286500721144534      -1.6530380859878526      -0.24094018711125023
-0.03578280111833121      -0.0662975118902044      0.0353213518571385       6.3461697797008E11       0.4446695403306294       -1.7108126354104178      -0.324390550573596
-0.035223414300568696     -0.06354446494094958     0.036371941908354355     8.887808907883599E11     0.35006720626996446      -1.7389981750002188      -0.24667771330961916
-0.038144760413786664     -0.06070265873073338     0.030835681634532784     9.571418997412114E11     0.20982233926215996      -1.5938158261930266      -0.16630949518037266
-0.03641257482021627      -0.0607593055836374      0.03413323744718275      9.96642174501106E11      0.22766364617995555      -1.6810023202929396      -0.17156448464805968
-0.03759338004776142      -0.0579741462263252      0.03189011300630299      1.1078996924433804E12    0.11402195125984536      -1.6215587552133996      -0.10527092751796839
-0.0344996550435208       -0.06041642509798423     0.037724697739207044     1.0793172453199437E12    0.23443432918180065      -1.7755179445209768      -0.1667780690339485
-0.033772857430010295     -0.057288385255018864    0.03907579351934394      1.2585789449942627E12    0.10507232648145406      -1.8112877456569334      -0.09527352038027578
-0.03569385423484865      -0.05763126574067204     0.035488702333594586     1.1888682680591436E12    0.11033735966686807      -1.7172416782003421      -0.10014489615092417
-0.040953886671117795     -0.05981868474623094     0.025392535792492413     9.871734206649824E11     0.15709339683511475      -1.4487183261783736      -0.1384877373234934
-0.04179158406852601      -0.06183587385864505     0.023745734582363634     8.46255067950551E11      0.21340738999597608      -1.4060287164541203      -0.1806932492059843
-0.040385293692954266     -0.06193235107733724     0.026504043062211505     8.665053076664607E11     0.2299101880196107       -1.4788782394087283      -0.18876545624421734
-0.04122616798599838      -0.0639611566446333      0.024858480330219562     7.355845557283302E11     0.28372345464511084      -1.4360904911752141      -0.23542215442082415
-0.04262477300543674      -0.06385306297105914     0.02209672244057124      7.286261339989005E11     0.2644102177874042       -1.3638803067552214      -0.22438524679270025
-0.042062533818544995     -0.06598996221192933     0.023210706666563996     5.201230188950301E11     0.33222555590117786      -1.3938439429670546      -0.2835653383016561
-0.04345345348184998      -0.06587025208347326     0.020445499367115223     5.317935903743316E11     0.31010188020939916      -1.3222730970816772      -0.26956373008364126
-0.039814652382119835     -0.06404601740844351     0.027614519667849998     7.572660515775249E11     0.30412359243794934      -1.508799454421356       -0.2445378782259488
-0.04065870357079985      -0.06608643943062154     0.025970195413994895     5.3520502587460046E11    0.35543613252808837      -1.465913567678581       -0.29564576269667153
-0.039841515189931266     -0.05920383857292903     0.027562356852789797     1.0279389658189885E12    0.14443317011598564      -1.5068114890013877      -0.12796652310579643
-0.03926892575000327      -0.06131750490403533     0.028671843342885747     9.13568636431301E11      0.2207147245438657       -1.5365868760398806      -0.17781300357103402
-0.038721346315479147     -0.0585889923996271      0.029728215924059987     1.0555501254008884E12    0.13007602159089582      -1.5644249653463962      -0.11689425317062142
-0.04642909983904214      -0.06556190991369742     0.01442188033959485      4.074723007829641E11     0.26478085225791853      -1.1768977438548627      -0.23778588138042397
-0.04544389660114455      -0.06566766372038435     0.016432889814827538     4.462898271814407E11     0.27941586448518757      -1.2236049344884752      -0.24855630077421026
-0.046342449818727725     -0.06435224945948712     0.014599425351115143     5.670249574524524E11     0.23649934193834354      -1.1797841063541321      -0.21017774955185306
-0.04535665204805841      -0.0644565167244599      0.016610169361211385     5.999593298578668E11     0.24997277727622402      -1.2267352098491977      -0.22007990874038372
-0.04445201448208049      -0.06577044444364295     0.018440762824000995     4.71397684284526E11      0.29452287380234776      -1.2720633855640797      -0.259148917008616
-0.04436417539622263      -0.06455781090600435     0.018617776905248393     6.500462309934094E11     0.2639182097039956       -1.2754375737862558      -0.22980426476953383
-0.04625574785123118      -0.06314258900527679     0.014776946184911849     6.519713776971476E11     0.20763232274606963      -1.1825893577697302      -0.1842616823427034
-0.04526935554779015      -0.06324536972853545     0.016787424729871644     6.869545776180681E11     0.2199441811945616       -1.2297843741262493      -0.19329558132597846