% Model:              wentai_test_m11.mph
% Version:            COMSOL 5.5.0.292
% Date:               Jan 3 2022, 17:11
% Dimension:          3
% Nodes:              22177
% Expressions:        4
% Description:        表面
% X                       Y                        Z                        Color                    DeformX                  DeformY                  DeformZ
-0.04851473881663425      -0.06529392956856216     0.010108330297943599     9.751639888776587E10     0.11301501327090072      -0.5217302623663742      -0.1043184888522277
-0.048514721764346014     -0.06353093245825568     0.010108366803403778     1.5045965629703458E11    0.09385408864668951      -0.5208728956354103      -0.0860246978067537
-0.0487596548365826       -0.06529260895154608     0.009293285712236105     8.392276050509843E10     0.11141339506534631      -0.5139652309373279      -0.1037798994465974
-0.04875965131906641      -0.06353012398785107     0.009293312779510773     1.3446698051436647E11    0.09243433635778524      -0.51329693832779        -0.08555279558702787
-0.04851471445622633      -0.061767935347949186    0.010108382448604845     1.9123335473332132E11    0.07458201882530921      -0.5200183691777215      -0.06942112760143627
-0.04875965754571876      -0.061767639024156044    0.009293318986526324     1.6481709657230124E11    0.07334413245305506      -0.5126314859915271      -0.06901591256761491
-0.04851471689227521      -0.060004938237642705    0.0101083772335468       2.347017870728976E11     0.05519880380675984      -0.5191666829933076      -0.05450777823627544
-0.04875457941268432      -0.0652923126277529      0.008479800673698218     7.963651396819864E10     0.10997626269859395      -0.5036763434851472      -0.10356822178651162
-0.04875458942994017      -0.06353033981066938     0.008479818302787373     1.2362894251450388E11    0.091179069907683        -0.5031971249970353      -0.08540780511284654
-0.0484995125449394       -0.06529304059718265     0.007667875182329935     9.035015505850621E10     0.10870361617064363      -0.49086360000983204     -0.10368345587197035
-0.048499512669747995     -0.05999515833337221     0.007667875434681681     2.194108427595177E11     0.052550713272301874     -0.49054939453673224     -0.05413910245293498
-0.04849951262814513      -0.061761119087975706    0.007667875350564432     1.716705068525068E11     0.07116537569692186      -0.490533966413814       -0.06885853209039257
-0.04875458945849632      -0.05999841830146241     0.008479818490634556     2.0374387328542148E11    0.05334561864335435      -0.5026963752617016      -0.05412026120082808
-0.048754589444218246     -0.06176437905606591     0.008479818396710965     1.545277937125804E11     0.07221085833810505      -0.5028866684890594      -0.06886635573906022
-0.04849951258654226      -0.06352707984257917     0.007667875266447183     1.3345520325542728E11    0.0898830099963691       -0.49063870157151385     -0.08537331656340436
-0.04875965753267205      -0.060001678269552564    0.009293319090256262     2.0598190611459045E11    0.054228315488173674     -0.5122354714138935      -0.05424315312860824
-0.04851471689227521      -0.05725706781259607     0.0101083772335468       2.483667344044466E11     0.024977616670736398     -0.5181286004081891      -0.03420956016381249
-0.048759657532672064     -0.057253807844505934    0.009293319090256238     2.127867808483033E11     0.02455709264016575      -0.5115127773718513      -0.034118222661006205
-0.048514716892275205     -0.054509197387549405    0.0101083772335468       2.5672571570027582E11    -0.0052448622971888684   -0.5175073077976514      -0.014974034962406457
-0.04875965753267205      -0.05450593741945927     0.00929331909025621      2.175993616826836E11     -0.0051154220397440185   -0.5112068733043902      -0.015055985064461094
-0.048514716892275205     -0.05176132696250277     0.0101083772335468       2.6674341296054285E11    -0.03546863309701597     -0.5173028051616946      0.0031987973679426383
-0.048754589458496325     -0.05725054787641576     0.008479818490634504     2.1378937445556216E11    0.024224360083361932     -0.502289069762736       -0.03416861833808697
-0.048499512669748        -0.0517216157071306      0.00766787543468168      2.778759239042963E11     -0.03361880456874392     -0.4905490332928663      0.0036846684119479474
-0.048499512669748        -0.054479463249211144    0.007667875434681681     2.5129202733011053E11    -0.004945663643482477    -0.49041948287655046     -0.01477113266697062
-0.048754589458496325     -0.051734852792254676    0.00847981849063452      2.2462080593744434E11    -0.03421710259519489     -0.502100322247478       0.0032744692747588783
-0.048754589458496325     -0.05449270033433522     0.00847981849063451      2.195884454862342E11     -0.005021387100126731    -0.5021298605896382      -0.015037679926976171
-0.048499512669748        -0.05723731079129168     0.00766787543468168      2.3903613123109E11       0.02377750897019945      -0.49041960329117235     -0.03404572295526493
-0.04875965753267206      -0.05174808987737872     0.009293319090256226     2.245615956009787E11     -0.03483371210461891     -0.5110182462037542      0.003112512260090442
-0.048499512669748        -0.04344538320562743     0.007667875434681681     1.4357499450729892E11    -0.11967522935073512     -0.48929893464997426     0.07017128932456883
-0.048499512669748        -0.046204127372795153    0.007667875434681681     1.9498197412745514E11    -0.09089998099031929     -0.4895830590457458      0.04516938190359426
-0.048754589458496304     -0.04346860144873633     0.008479818490632321     1.2820644308948273E11    -0.12139406587408141     -0.5019611648138551      0.06954473271651006
-0.048754589458496325     -0.04622734561590407     0.008479818490632353     1.6755950784886646E11    -0.09226316477341903     -0.5018958926524146      0.04456611754188151
-0.048499512669748        -0.04896287153996288     0.00766787543468168      2.354486936716332E11     -0.06221450606298889     -0.4899997585933764      0.023007174932720642
-0.04875458945849631      -0.04898608978307179     0.00847981849063238      1.9717451057630127E11    -0.06322203710584207     -0.5019631956428332      0.02242720281735385
-0.048759657532672036     -0.043491819691845235    0.009293319090254028     1.269435531955906E11     -0.12327566187828216     -0.5119862058152399      0.06944352428520703
-0.048759657532672064     -0.04625056385901299     0.00929331909025409      1.6773051664649673E11    -0.09378910803737323     -0.5115715370965874      0.044488201356924446
-0.048514716892275205     -0.04351503793495414     0.0101083772335468       1.5454070296806665E11    -0.12532001736333742     -0.5193740576541286      0.0698676640306597
-0.048514716892275205     -0.0490125639533199      0.0101083772335468       2.296312057802298E11     -0.06561605167205918     -0.5177651524708264      0.02287850505448663
-0.048759657532672064     -0.04899932686819586     0.009293319090255159     1.9223947563035623E11    -0.06440988864746411     -0.5111808565559978      0.022528732874659927
-0.0485147168922752       -0.04626380094413702     0.0101083772335468       1.952141797858224E11     -0.09556651309416633     -0.5184555699683044      0.045101460608725656
-0.048499512669738        -0.0381431649117068      0.00766787543467168      5.738554496454464E10     -0.17527418712950651     -0.4892507796414467      0.1315904274597143
-0.04849951266974134      -0.039910571009680346    0.007667875434675014     5.4209046145367935E10    -0.15660364681065875     -0.48910458284781144     0.10935746024574486
-0.04875458338242887      -0.03819984180662221     0.008478867716049884     4.344928013145598E10     -0.17663148695996106     -0.5024159293047206      0.1307206474217034
-0.048754586420463146     -0.03995200176076689     0.008479343103340566     4.466077243368494E10     -0.1582113464593014      -0.5021953041909103      0.10851262882548252
-0.04849951266974467      -0.041677977107653884    0.0076678754346783465    9.288241322649165E10     -0.13807066088440156     -0.4891206345173206      0.08888441420069634
-0.04875458945849741      -0.04170416171491155     0.008479818490631246     8.609229597661305E10     -0.13992876035123242     -0.5021369275402443      0.08806453139818257
-0.0487596514566046       -0.03822602641387987     0.009292368315671588     3.3999600837230457E10    -0.17860208499062966     -0.5130969006304047      0.13077505708944787
-0.04875965753266982      -0.03996294022419568     0.00929331909024962      4.693550681579524E10     -0.16043234430815817     -0.5128018471964193      0.10859198711097555
-0.048514716892265206     -0.0382217187334798      0.0101083772335368       4.656586258514594E10     -0.1811859812215124      -0.521293693618499       0.13175365646294776
-0.04851471689227187      -0.04175059820112936     0.010108377233543466     9.775701416183109E10     -0.14417468191788818     -0.5201154787521409      0.08867540633211687
-0.048759657532670926     -0.04172737995802046     0.009293319090251825     8.067400343205444E10     -0.1419703413941331      -0.5124447977274407      0.08810729477677186
-0.048514716892268536     -0.03998615846730458     0.01010837723354013      5.970177288231741E10     -0.16279666987061317     -0.5207553574069309      0.10930407047621288
-0.02194908778754411      -0.0603934520802086      0.060095426615922515     5.699642442120984E11     0.181340564169802        -1.0937579680765668      -0.10205204839919176
-0.021216005879843233     -0.0622920453783423      0.06134316011669001      4.6788196350312476E11    0.24859491481955495      -1.1005898353969183      -0.13157870845343927
-0.021216005879840554     -0.059833628181012344    0.06134316011669157      5.3664985428783875E11    0.16550585300049572      -1.1021941789000766      -0.09577753205307814
-0.020480304092791092     -0.061732221479146046    0.06258927235034163      4.424463328399853E11     0.2336738424340921       -1.1076865032751804      -0.1252592335152797
-0.02048030409279076      -0.064190638676476       0.06258927235033918      3.710548924524883E11     0.3161757376477529       -1.1061483814891273      -0.16366089710736073
-0.019741982426390033     -0.06363081477727973     0.06383376331687333      3.3193476045572363E11    0.3021683040461334       -1.1119055064221413      -0.1572964635771552
-0.019741982426386702     -0.0660892319746097      0.06383376331687         2.1701119779141794E11    0.384083032654396        -1.1104336063531939      -0.1982986143609562
-0.020480304092791418     -0.059273804281816084    0.06258927235034405      5.161944104655635E11     0.14862822208247556      -1.109478005820653       -0.08920454449272586
-0.01974198242639337      -0.061172397579949786    0.06383376331687668      4.0697017452408594E11    0.21770985029991524      -1.1136307872505085      -0.11864128736288149
-0.0197419824263967       -0.05871398038261981     0.06383376331688         4.748833410835254E11     0.13070767141574155      -1.1156094488382962      -0.08233308571813495
-0.022090253392744327     -0.05853929740075689     0.05985445729791768      5.97313481404012E11      0.1187037908468786       -1.0930403629856125      -0.07612486652908126
-0.021357677983842128     -0.057979473501560644    0.06110250223915622      5.699105883642067E11     0.10132908144505245      -1.1017802806940702      -0.06962866771195857
-0.02062248269559434      -0.057419649602364356    0.06234892591327818      5.517126828287936E11     0.08291145229451236      -1.1093678144995942      -0.06283399768059719
-0.022231321078370364     -0.056685142721305176    0.0596134281551018       6.297485802230953E11     0.05595832006860417      -1.0920594439373297      -0.05108592682950629
-0.021499252168269516     -0.056125318822108916    0.06086178453680983      6.047768411354896E11     0.03704361243425809      -1.101103068530735       -0.04436804554137449
-0.022372290844422226     -0.05483098804185345     0.0593723391874749       6.61344239005317E11      -0.006895848165021324    -1.0908152109317186      -0.026935229300466795
-0.021499252168270165     -0.0530189564540783      0.06086178453680871      6.143699727710452E11     -0.07078718977010573     -1.101830299452884       -0.0031306476536671294
-0.020622482695594663     -0.05431328723433376     0.062348925913277634     5.613102846642678E11     -0.027254150125245808    -1.1105557288773111      -0.020125597419251608
-0.0197419824263967       -0.05560761801458921     0.06383376331687998      4.9066990589910455E11    0.018207268780588978     -1.117258046671581       -0.03815368308315112
-0.02062248269559499      -0.051206924866303155    0.06234892591327707      5.730080927895176E11     -0.13776624455484027     -1.1109888442649283      0.022504839233984778
-0.0197419824263967       -0.05250125564655862     0.06383376331688         5.005922245103335E11     -0.09463962586439986     -1.1181518455147663      0.005947755943723513
-0.019741982426396697     -0.04939489327852801     0.06383376331687998      5.143415281236384E11     -0.20783301251922495     -1.1182908453678522      0.04997123136248893
-0.02248663292356711      -0.062360830919639364    0.0591766222803309       5.2409717969506384E11    0.24295509429978393      -1.085853295866486       -0.1283849060301881
-0.021755514520240153     -0.06426049903834471     0.060425487055779034     4.195124559170105E11     0.3091930484800781       -1.0935685000945667      -0.16012672553866844
-0.02302275315468914      -0.06432820975907014     0.0582569524632358       4.7180864357863464E11    0.30071499098988347      -1.0776060200028887      -0.15618574279910363
-0.0222935982557361       -0.06622895269834711     0.05950694851336455      3.22339274401679E11      0.3659365487007188       -1.086204561138699       -0.19014272176181685
-0.023557448480910206     -0.06629558859850092     0.057336417164637214     3.5868539482437506E11    0.35462025424010063      -1.0690161404857756      -0.18545455870593844
-0.0210217762375616       -0.06616016715705005     0.061672730564108824     2.842501884301719E11     0.37575747483881716      -1.1000103830945052      -0.19442407364682274
-0.024398068742739133     -0.06343367877647235     0.05588245062065203      5.308206952964425E11     0.26103389057845394      -1.057489723750551       -0.13801731301867998
-0.025216671741357926     -0.06637295842436115     0.05445855008047291      3.766973213651638E11     0.33697596024575577      -1.0422660209645258      -0.18030058979064173
-0.026050254555248276     -0.06349583570295415     0.05300035599004049      5.4000807078523755E11    0.2480374191759729       -1.0290599384546795      -0.1337788513892561
-0.025235122770220594     -0.060571768954443765    0.05442636205744937      6.303467891764232E11     0.16988002328524654      -1.0447982069881054      -0.09636768854774813
-0.026880271134791165     -0.06061871298154715     0.051540039880390597     6.414812799620264E11     0.1615313744746294       -1.0146887559176125      -0.09304473420419712
-0.0260686105633546       -0.0577098591324152      0.05296815147502925      7.214379298255746E11     0.0811586523604786       -1.03094159019844        -0.060505685293143034
-0.026861952849655736     -0.06641990245146451     0.05157235768119882      3.821327812243457E11     0.31799633175207276      -1.012701102365122       -0.17521045861858836
-0.027688498215607517     -0.0635275668306791      0.05010993604431918      5.483529434364868E11     0.23370561327415373      -0.9978153540806539      -0.12960422750307554
-0.02849329180580365      -0.06643642067981104     0.04867783996681495      4.0317680666922705E11    0.29768136875905155      -0.9803213846875639      -0.17018416518977822
-0.023331761865893797     -0.0594989210976108      0.05772536633664877      6.24986014389374E11      0.14610061334726804      -1.0754978660267702      -0.08678215942869033
-0.023865627756766948     -0.06146629993704158     0.05680434121940215      5.777134837366552E11     0.20549456868280216      -1.0666650967154188      -0.11166574665472552
-0.02470493612449729      -0.05860439011501299     0.05534960795635101      6.695024862509224E11     0.11270664274416026      -1.0545590734007277      -0.07293337172667408
-0.023612066173036007     -0.05579061173870736     0.05724220012422757      6.76523125984861E11      0.025642639482458016     -1.072856775851045       -0.03869391911185443
-0.023471962979251994     -0.05764476641815909     0.0574838131428437       6.438104214710247E11     0.08592597514253857      -1.0743089779175716      -0.06229391818500463
-0.02484417274601346      -0.05675023543556128     0.05510747088674568      6.898559317835588E11     0.054994139657624654     -1.0528989022732853      -0.049884071109413175
-0.02308484021926819      -0.052313802752662834    0.05815023316026935      6.648382762744702E11     -0.08956244880682611     -1.0811776063331502      0.0051042025598779005
-0.022214868526023657     -0.05050177116488769     0.059641550589873        6.203245705840334E11     -0.15424750423535089     -1.0929222133590148      0.029661850248905317
-0.021341166036256003     -0.04868973957711252     0.061130564046611185     5.790451594982839E11     -0.2220202728435258      -1.1028102766757586      0.05605040317878497
-0.023794868429390364     -0.0497966174634722      0.056926606150665006     6.699222024931024E11     -0.16751858089268248     -1.0699504704389597      0.036954458965799894
-0.02292796371905336      -0.047984585875697046    0.05841979566053851      6.157087367748186E11     -0.23299735014464762     -1.0824245959695236      0.06226517269705506
-0.024502375474788753     -0.04727943217428155     0.0557014581586619       6.571564995783914E11     -0.2407642444225905      -1.0571338032491473      0.06861553991729918
-0.024320218469899176     -0.05327342644951675     0.05601745181372449      6.800792787060536E11     -0.05461619162722235     -1.061903981050305       -0.007238233341809306
-0.02502584960203856      -0.0507562411603261      0.05479118252082262      6.813254229150925E11     -0.13016455418095432     -1.0493616549539428      0.024028276973813118
-0.025547927964893847     -0.054233050146370664    0.05388008029294508      6.92825508433335E11      -0.02285692191993128     -1.040630917270374       -0.019012131429667622
-0.019741982426393367     -0.04546470473413347     0.06383376331687665      3.9090881788900714E11    -0.34730771927385495     -1.1165271735498359      0.10916858857371806
-0.021341166036255348     -0.044759551032718       0.06113056404660931      4.507817341189636E11     -0.35401147965716234     -1.10046912270142        0.11498469262716743
-0.01974198242639003      -0.04153451618973893     0.06383376331687332      2.8037049518560254E11    -0.4784952108788614      -1.114107388948524       0.17661265481012695
-0.02134116603625469      -0.04082936248832346     0.061130564046607425     3.350155407333875E11     -0.47771547132117553     -1.0974718559437855      0.1821656911007297
-0.019741982426386702     -0.0376043276453444      0.06383376331687         2.2358712824939145E11    -0.6013954873342447      -1.1110314915639163      0.2523034300717157
-0.022927963719055377     -0.044054397331302515    0.058419795660538065     4.6920240817807904E11    -0.3575050570172908      -1.0795059598388623      0.12093639438259085
-0.03402589848881872      -0.06632962429826178     0.03860622638981785      3.353232424165201E11     0.23015473678721374      -0.8587395439181255      -0.15811811948242657
-0.032200314321971416     -0.06631406738501108     0.041974364551011244     3.5570046506495374E11    0.24962733013718552      -0.9004736464141413      -0.1607445198998504
-0.03329710056009055      -0.06320158445529642     0.03995627316511136      4.7044350809117676E11    0.1756619479117544       -0.8763396305451413      -0.11584956728808045
-0.0314640676310715       -0.06321160539559595     0.04332001691669889      4.997552796939662E11     0.19081484177654287      -0.9177797726609457      -0.1181914514988189
-0.030356112094299722     -0.06634966617886082     0.045331569076676945     3.8140935061411035E11    0.27213620746113143      -0.9410009266706207      -0.16476653513563427
-0.029612416641228056     -0.06327278204299593     0.046672827032758706     5.270705215288106E11     0.2090040196153055       -0.9580130925372136      -0.1219289505279174
-0.032565264274899766     -0.060073544612331053    0.041304659889689094     5.610595131216719E11     0.11460305548351608      -0.8935810366403465      -0.07759606082545858
-0.030724782583708976     -0.06010914340618083     0.04466400923167074      5.925805438617017E11     0.12543624986312127      -0.9347272183759394      -0.07965342882951165
-0.031830389633246386     -0.0569455047693657      0.04265138656355106      6.458680866726393E11     0.04697805950249883      -0.910463762203741       -0.04335760009456097
-0.028812440437810467     -0.060363928193863985    0.048107676527896756     6.201566031886398E11     0.14317139533550122      -0.9756480230282712      -0.08588519190127619
-0.028009030743772655     -0.057455074344732036    0.04954053378160201      7.046366942050612E11     0.06914028774107037      -0.9926623859631971      -0.053861877662459264
-0.029929623767069927     -0.05720028955704888     0.04610161214444262      6.793710752750338E11     0.05774675678841046      -0.9525031099649643      -0.04814584926293193
-0.031143366534992507     -0.05375681043139397     0.04390392191010266      6.31151030965635E11      -0.026688463536446175    -0.9256923777061248      -0.008872830471507819
-0.029235392881482053     -0.05401159521907715     0.04735007773875441      6.605246740156923E11     -0.022689253651603646    -0.9673343639233656      -0.013078303060266853
-0.02730759207085079      -0.0542663800067603      0.050784929623673994     6.846308627642512E11     -0.01806521010001283     -1.0070962783776158      -0.018211554880182293
-0.030453723256724335     -0.050568116093422225    0.04515499213951263      6.320540286773508E11     -0.10465591207527877     -0.9406053902098626      0.02707219442008308
-0.028538541815879892     -0.0508229008811054      0.04859707821592458      6.620337450429673E11     -0.10742618959150535     -0.9818500148831207      0.02344949841093595
-0.029761459798441886     -0.04737942175545048     0.04640459725178099      6.450196044654664E11     -0.186924286113999       -0.9552027997149543      0.0644774745802117
-0.02627152770512612      -0.047312762034671205    0.05261187337351411      6.595911251009019E11     -0.2215964660787261      -1.0254044577974886      0.06621097816841616
-0.02679025777018572      -0.050789571020715754    0.05169881479361319      6.700904987948678E11     -0.11818480909906291     -1.0167296627817346      0.023226284374114274
-0.028024555813010495     -0.04734609189506084     0.049512919737887136     6.531948551432583E11     -0.20364981330919557     -0.9914274566194241      0.06483162305605367
-0.026207795522914384     -0.03758166108350667     0.05272434496234215      3.7029411461533673E11    -0.47788953750712343     -1.0210934338796125      0.22776426775262945
-0.025640878961918474     -0.04081425144709831     0.05371763954747478      4.125765713353709E11     -0.4076528118108259      -1.03415811734684        0.16655594769405063
-0.02407613111516751      -0.0375817533779783      0.05644124481019075      3.375942281394474E11     -0.5219789514124813      -1.0583851000647864      0.23479345882332273
-0.023502825811301097     -0.040818075354640417    0.05743098199521077      3.5969002829278796E11    -0.44414452354749284     -1.0694711434571822      0.17378555454622246
-0.02507240561254326      -0.044046841810689935    0.05471001061291469      5.0917720747945825E11    -0.328611047449315       -1.0461715738033515      0.11350637174894056
-0.021920860082991614     -0.03758930889859087     0.06014438426170002      2.9301260732653955E11    -0.563147601354855       -1.088364452626221       0.24297317959635145
-0.02683639054376656      -0.04408017167107959     0.05161739568370519      5.2221560265452765E11    -0.3038313019392452      -1.0134022006150323      0.11026739238400235
-0.027399696594027703     -0.04084758130748794     0.05062199447420355      4.131410948399075E11     -0.37726109913455064     -1.0003487164218603      0.16248255071305723
-0.028584251352536876     -0.044113501531469215    0.0485154119040165       5.1407107598933154E11    -0.28027268200350924     -0.9783851717003078      0.10805361965558469
-0.03924196273861451      -0.06615968373954978     0.028723965609407893     2.6951732943909473E11    0.18161172654047328      -0.7357957252686619      -0.14625456676314205
-0.037521489201596474     -0.06624086503730041     0.03202726493033518      2.81553519735192E11      0.19648703758324526      -0.7772334656849398      -0.15118878920444934
-0.03869428797740436      -0.06343117123514158     0.029780299168901087     3.8290164842948145E11    0.14270964407891223      -0.7490156178794347      -0.1115085242509128
-0.03696795841211015      -0.0635000853104689      0.03308072673568971      4.0176021242156085E11    0.15441369907998084      -0.7905834323261194      -0.115232263387628
-0.03578280111833121      -0.0662975118902044      0.0353213518571385       3.0351246768345996E11    0.21266804099882536      -0.8182147385680941      -0.15514330677754415
-0.035223414300568696     -0.06354446494094958     0.036371941908354355     4.250691216244259E11     0.16742344645385762      -0.8316947792396805      -0.11797629765613074
-0.038144760413786664     -0.06070265873073338     0.030835681634532784     4.577635172069323E11     0.1003498144157332       -0.7622597428627234      -0.07953932377307638
-0.03641257482021627      -0.0607593055836374      0.03413323744718275      4.7665495295887305E11    0.10888261337509844      -0.8039576313398147      -0.08205257960519949
-0.03759338004776142      -0.0579741462263252      0.03189011300630299      5.2986507022888055E11    0.05453223755093616      -0.775528100218528       -0.050346965329632766
-0.0344996550435208       -0.06041642509798423     0.037724697739207044     5.161952042147427E11     0.11212076611442097      -0.849160755964676       -0.07976342431185843
-0.033772857430010295     -0.057288385255018864    0.03907579351934394      6.019290605695956E11     0.050251982222205324     -0.8662680521578604      -0.04556559669931032
-0.03569385423484865      -0.05763126574067204     0.035488702333594586     5.68589171605085E11      0.05277004157168445      -0.8212894981627894      -0.04789538511100092
-0.040953886671117795     -0.05981868474623094     0.025392535792492413     4.7212641851678094E11    0.0751316245628687       -0.6928652863430846      -0.0662332656692119
-0.04179158406852601      -0.06183587385864505     0.023745734582363634     4.047306846189076E11     0.10206440389727078      -0.6724485164776594      -0.08641851047992401
-0.040385293692954266     -0.06193235107733724     0.026504043062211505     4.1441558187279535E11    0.10995704642916504      -0.7072895926687671      -0.09027913123690331
-0.04122616798599838      -0.0639611566446333      0.024858480330219562     3.5180130921513116E11    0.13569382611638384      -0.6868258869945721      -0.11259320427495523
-0.04262477300543674      -0.06385306297105914     0.02209672244057124      3.4847336838870154E11    0.12645706066401302      -0.6522905814069339      -0.10731468323603825
-0.042062533818544995     -0.06598996221192933     0.023210706666563996     2.487544872649947E11     0.15889048323594282      -0.6666210161150768      -0.13561820525840929
-0.04345345348184998      -0.06587025208347326     0.020445499367115223     2.5433606492856387E11    0.1483095948630955       -0.6323914811309083      -0.12892178393755468
-0.039814652382119835     -0.06404601740844351     0.027614519667849998     3.621707202717717E11     0.14545041375503323      -0.7215997389772929      -0.11695289826821335
-0.04065870357079985      -0.06608643943062154     0.025970195413994895     2.5596762103648724E11    0.16999119379506872      -0.7010890974943281      -0.14139579953360507
-0.039841515189931266     -0.05920383857292903     0.027562356852789797     4.916229835876981E11     0.06907673352396428      -0.7206489729069586      -0.061201380609273215
-0.03926892575000327      -0.06131750490403533     0.028671843342885747     4.3692413040940283E11    0.10555921607165233      -0.7348893754017751      -0.0850410016982837
-0.038721346315479147     -0.0585889923996271      0.029728215924059987     5.0482832077719366E11    0.062210271186653426     -0.7482032441987728      -0.05590594716274683
-0.04642909983904214      -0.06556190991369742     0.01442188033959485      1.948780568711111E11     0.12663432062841576      -0.5628641382924274      -0.11372368238571857
-0.04544389660114455      -0.06566766372038435     0.016432889814827538     2.134429607983631E11     0.13363367430136872      -0.5852023598968737      -0.11887475252992888
-0.046342449818727725     -0.06435224945948712     0.014599425351115143     2.7118584918130975E11    0.11310838091208693      -0.5642445725310214      -0.10051979325204044
-0.04535665204805841      -0.0644565167244599      0.016610169361211385     2.86937070764431E11      0.11955219781192625      -0.5866994481126686      -0.10525560851552941
-0.04445201448208049      -0.06577044444364295     0.018440762824000995     2.254510663677254E11     0.14085876571292863      -0.6083781408430339      -0.12394078638054089
-0.04436417539622263      -0.06455781090600435     0.018617776905248393     3.108916756521427E11     0.12622175245037248      -0.6099918830360297      -0.10990638748542009
-0.04625574785123118      -0.06314258900527679     0.014776946184911849     3.118123979886368E11     0.09930241521319973      -0.5655862145122121      -0.08812515241450106
-0.04526935554779015      -0.06324536972853545     0.016787424729871644     3.285434936007591E11     0.1051906953399254       -0.5881577440710604      -0.09244571279726871