% Model:              wentai_test_m100.mph
% Version:            COMSOL 5.5.0.292
% Date:               Jan 3 2022, 18:48
% Dimension:          3
% Nodes:              22177
% Expressions:        4
% Description:        表面
% X                       Y                        Z                        Color                    DeformX                  DeformY                  DeformZ
-0.04851473881663425      -0.06529392956856216     0.010108330297943599     8.865127172755459E11     1.0274092116873084       -4.743002385762046       -0.9483498987709399
-0.048514721764346014     -0.06353093245825568     0.010108366803403778     1.3678150574226821E12    0.8532189878085403       -4.735208142752329       -0.7820427074267474
-0.0487596548365826       -0.06529260895154608     0.009293285712236105     7.629341865081401E11     1.012849046180237        -4.672411190943273       -0.9434536314463745
-0.04875965131906641      -0.06353012398785107     0.009293312779510773     1.2224270957435535E12    0.8403121488166848       -4.666335803583107       -0.7777526872468435
-0.04851471445622633      -0.061767935347949186    0.010108382448604845     1.7384850432557524E12    0.6780183530462791       -4.727439720408749       -0.6311011600859837
-0.04875965754571876      -0.061767639024156044    0.009293318986526324     1.498337241760947E12     0.6667648405696394       -4.660286236889078       -0.6274173870507412
-0.04851471689227521      -0.060004938237642705    0.0101083772335468       2.1336526100307546E12    0.501807307400525        -4.719697118731308       -0.49552525674864883
-0.04875457941268432      -0.0652923126277529      0.008479800673698218     7.239683088950886E11     0.9997842064806395       -4.5788758504567015      -0.9415292890817339
-0.04875458942994017      -0.06353033981066938     0.008479818302787373     1.1238994775504011E12    0.828900635632303        -4.574519318746086       -0.7764345920268644
-0.0484995125449394       -0.06529304059718265     0.007667875182329935     8.21365046092586E11      0.9882146925885157       -4.46239636430233        -0.9425768716770183
-0.048499512669747995     -0.05999515833337221     0.007667875434681681     1.9946440253451047E12    0.4777337570836782       -4.4595399509103535      -0.49217365871789204
-0.04849951262814513      -0.061761119087975706    0.007667875350564432     1.5606409715887822E12    0.6469579609655343       -4.459399695247368       -0.6259866554395385
-0.04875458945849632      -0.05999841830146241     0.008479818490634556     1.8522170301076597E12    0.48496016954889587      -4.569967048424413       -0.4920023746077441
-0.048754589444218246     -0.06176437905606591     0.008479818396710965     1.4047981248419417E12    0.6564623486140546       -4.571696986855095       -0.626057779518273
-0.04849951258654226      -0.06352707984257917     0.007667875266447183     1.21322912066107E12      0.81711827280048         -4.460351833044693       -0.7761210597592471
-0.04875965753267205      -0.060001678269552564    0.009293319090256262     1.872562783102893E12     0.4929846863211782       -4.656686104364732       -0.49311957395132977
-0.04851471689227521      -0.05725706781259607     0.0101083772335468       2.2578794039712603E12    0.2270692424923745       -4.710260004319982       -0.31099600152038137
-0.048759657532672064     -0.057253807844505934    0.009293319090256238     1.9344252806915845E12    0.2232462967592674       -4.650116158527199       -0.3101656605856336
-0.048514716892275205     -0.054509197387549405    0.0101083772335468       2.333870143035307E12     -0.04768056634215208     -4.704611889678062       -0.1361275905757613
-0.04875965753267205      -0.05450593741945927     0.00929331909025621      1.9781760155564414E12    -0.04650383672901951     -4.6473352124590726      -0.13687259150358477
-0.048514716892275205     -0.05176132696250277     0.0101083772335468       2.4249401181410444E12    -0.3224421191030547      -4.70275277480555        0.029079976085211425
-0.048754589458496325     -0.05725054787641576     0.008479818490634504     1.9435397680316099E12    0.22022145533322482      -4.566264271160673       -0.31062380310461923
-0.048499512669748        -0.0517216157071306      0.00766787543468168      2.5261447630975444E12    -0.305625496117024       -4.459536666875423       0.03349698557669989
-0.048499512669748        -0.054479463249211144    0.007667875434681681     2.284472976027859E12     -0.044960578581313894    -4.458358935817769       -0.13428302425340088
-0.048754589458496325     -0.051734852792254676    0.00847981849063452      2.0420073269722383E12    -0.3110645690853119      -4.564548384658252       0.02976790251092181
-0.048754589458496325     -0.05449270033433522     0.00847981849063451      1.9962585955911643E12    -0.04564897364163889     -4.56481691504148        -0.13670618116280042
-0.048499512669748        -0.05723731079129168     0.00766787543468168      2.1730557387477236E12    0.2161591724855868       -4.4583600304960775      -0.3095065723515981
-0.04875965753267206      -0.05174808987737872     0.009293319090256226     2.0414690511859229E12    -0.3166701100806555      -4.645620420634961       0.028295566013758988
-0.048499512669748        -0.04344538320562743     0.007667875434681681     1.3052272229638318E12    -1.0879566305989405      -4.4481721337569065      0.6379208121337432
-0.048499512669748        -0.046204127372795153    0.007667875434681681     1.7725634013901553E12    -0.8263634636525673      -4.450755082809678       0.410630744640716
-0.048754589458496304     -0.04346860144873633     0.008479818490632321     1.165513119147435E12     -1.1035824171767037      -4.563283317079868       0.6322248429688817
-0.048754589458496325     -0.04622734561590407     0.008479818490632353     1.523268253370816E12     -0.8387560435003943      -4.562689933793933       0.40514652316994104
-0.048499512669748        -0.04896287153996288     0.00766787543468168      2.1404426700219526E12    -0.5655864188252617      -4.454543260515849       0.2091561357883682
-0.04875458945849631      -0.04898608978307179     0.00847981849063238      1.7924955509284595E12    -0.5747457919431527      -4.563301779161398       0.2038836620116799
-0.048759657532672036     -0.043491819691845235    0.009293319090254028     1.1540323019288923E12    -1.1206878353987972      -4.6544200534679785      0.6313047663205564
-0.048759657532672064     -0.04625056385901299     0.00929331909025409      1.5248228788040728E12    -0.8526282549925517      -4.650650337843334       0.4044381942157026
-0.048514716892275205     -0.04351503793495414     0.0101083772335468       1.4049154817114133E12    -1.1392728852652212      -4.721582342921235       0.6351605821887678
-0.048514716892275205     -0.0490125639533199      0.0101083772335468       2.0875564164572783E12    -0.5965095607294917      -4.706955932161924       0.2079864096224868
-0.048759657532672064     -0.04899932686819586     0.009293319090255159     1.7476315968685095E12    -0.5855444423227943      -4.647098696564721       0.20480666253277574
-0.0485147168922752       -0.04626380094413702     0.0101083772335468       1.7746743619214648E12    -0.8687864827835472      -4.713232454867153       0.41001327832367224
-0.048499512669738        -0.0381431649117068      0.00766787543467168      5.2168677247273553E11    -1.5934017013797581      -4.447734360952069       1.1962766134351666
-0.04849951266974134      -0.039910571009680346    0.007667875434675014     4.928095104766676E11     -1.4236695166412328      -4.446405299191575       0.9941587296454437
-0.04875458338242887      -0.03819984180662221     0.008478867716049884     3.949934557918858E11     -1.6057407907489933      -4.567417539724656       1.1883695221795376
-0.048754586420463146     -0.03995200176076689     0.008479343103340566     4.06007022177402E11      -1.438284967994291       -4.565411856871574       0.986478444005741
-0.04849951266974467      -0.041677977107653884    0.0076678754346783465    8.443855748964244E11     -1.25518782638096        -4.4465512234598545      0.8080401292116359
-0.04875458945849741      -0.04170416171491155     0.008479818490631246     7.826572362532E11        -1.272079639717841       -4.564881160047266       0.8005866491878593
-0.0487596514566046       -0.03822602641387987     0.009292368315671588     3.0908728037857574E11    -1.6236553183027174      -4.6645172790617195      1.1888641555227342
-0.04875965753266982      -0.03996294022419568     0.00929331909024962      4.266864256537364E11     -1.4584758575318377      -4.661834975116051       0.9871998829648634
-0.048514716892265206     -0.0382217187334798      0.0101083772335368       4.2332602355637335E11    -1.6471452840409306      -4.739033578963261       1.1977605134647558
-0.04851471689227187      -0.04175059820112936     0.010108377233543466     8.887001288600302E11     -1.3106789266921888      -4.7283225347222375      0.8061400576788544
-0.048759657532670926     -0.04172737995802046     0.009293319090251825     7.334000312962456E11     -1.2906394673828498      -4.658589070852178       0.8009754071750886
-0.048514716892268536     -0.03998615846730458     0.01010837723354013      5.4274338990997205E11    -1.4799697262840918      -4.734139613402912       0.9936733681041836
-0.02194908778754411      -0.0603934520802086      0.060095426615922515     5.181493129882429E12     1.6485505836048897       -9.943254256533232       -0.9277458946463542
-0.021216005879843233     -0.0622920453783423      0.06134316011669001      4.25347239604254E12      2.259953771411159        -10.005362141271322      -1.1961700769925587
-0.021216005879840554     -0.059833628181012344    0.06134316011669157      4.878635039621338E12     1.504598663866043        -10.019947082211154      -0.8707048369474804
-0.020480304092791092     -0.061732221479146046    0.06258927235034163      4.0222393899829907E12    2.124307658799231        -10.069877303809015      -1.138720304820515
-0.02048030409279076      -0.064190638676476       0.06258927235033918      3.3732262954666367E12    2.8743248881127585       -10.055894378479321      -1.487826337520683
-0.019741982426390033     -0.06363081477727973     0.06383376331687333      3.0175887318119883E12    2.74698458262775         -10.108231877876783      -1.4299678508754696
-0.019741982426386702     -0.0660892319746097      0.06383376331687         1.9728290710906638E12    3.4916639337096886       -10.094850968157234      -1.8027146762307278
-0.020480304092791418     -0.059273804281816084    0.06258927235034405      4.692676459393834E12     1.351165655501252        -10.086163690588286      -0.8109504045733804
-0.01974198242639337      -0.061172397579949786    0.06383376331687668      3.6997288597952285E12    1.9791804575613585       -10.123916249045916      -1.0785571579732454
-0.0197419824263967       -0.05871398038261981     0.06383376331688         4.317121283143489E12     1.188251558510517        -10.141904081664634      -0.7484825975240545
-0.022090253392744327     -0.05853929740075689     0.05985445729791768      5.430122558931982E12     1.079125371503399        -9.936730573887512       -0.6920442412513902
-0.021357677983842128     -0.057979473501560644    0.06110250223915622      5.18100534944592E12      0.9211734678307075       -10.016184371247144      -0.6329878883612565
-0.02062248269559434      -0.057419649602364356    0.06234892591327818      5.015569844556047E12     0.7537404755320714       -10.085161951305984      -0.5712181607958965
-0.022231321078370364     -0.056685142721305176    0.0596134281551018       5.724987093689432E12     0.5087120007167651       -9.92781312799303        -0.4644175166805351
-0.021499252168269516     -0.056125318822108916    0.06086178453680983      5.49797128377162E12      0.3367601131102286       -10.010027897034373      -0.40334586859914134
-0.022372290844422226     -0.05483098804185345     0.0593723391874749       6.012220355383514E12     -0.06268952875501245     -9.916501918849788       -0.24486572093378878
-0.021499252168270165     -0.0530189564540783      0.06086178453680871      5.585181571378887E12     -0.6435199070581065      -10.016639087236703      -0.028460433208274044
-0.020622482695594663     -0.05431328723433376     0.062348925913277634     5.102820770344277E12     -0.24776500114263977     -10.095961172923131      -0.1829599765520263
-0.0197419824263967       -0.05560761801458921     0.06383376331687998      4.460635508758154E12     0.16552062532942902      -10.156891334696592      -0.34685166442718135
-0.02062248269559499      -0.051206924866303155    0.06234892591327707      5.209164480587822E12     -1.2524204051799255      -10.099898585538458      0.2045894476180365
-0.0197419824263967       -0.05250125564655862     0.06383376331688         4.550838405235496E12     -0.860360235214233       -10.165016778726734      0.05407050859588447
-0.019741982426396697     -0.04939489327852801     0.06383376331687998      4.675832074463635E12     -1.88939102312047        -10.166280413755054      0.4542839215451428
-0.02248663292356711      -0.062360830919639364    0.0591766222803309       4.764519816037821E12     2.2086826757683693       -9.87139360006872        -1.1671355095040439
-0.021755514520240153     -0.06426049903834471     0.060425487055779034     3.813749599748614E12     2.810845895669267        -9.941531820332699       -1.4556975050731638
-0.02302275315468914      -0.06432820975907014     0.0582569524632358       4.289169487645665E12     2.7337726457464577       -9.796418364935453       -1.419870389253681
-0.0222935982557361       -0.06622895269834711     0.05950694851336455      2.930357040403294E12     3.326695897741984        -9.87458692072532        -1.7285701980457162
-0.023557448480910206     -0.06629558859850092     0.057336417164637214     3.2607763170195615E12    3.223820493539155        -9.718328551133434       -1.685950533895266
-0.0210217762375616       -0.06616016715705005     0.061672730564108824     2.584092622434049E12     3.415977044465495        -10.000094393066586      -1.7674915788242034
-0.024398068742739133     -0.06343367877647235     0.05588245062065203      4.825642685152517E12     2.373035369229539        -9.613542944436379       -1.2547028457734861
-0.025216671741357926     -0.06637295842436115     0.05445855008047291      3.4245211037783555E12    3.0634178208396454       -9.47514564636359        -1.6390962710223322
-0.026050254555248276     -0.06349583570295415     0.05300035599004049      4.909164280517796E12     2.2548856291889674       -9.355090350804293       -1.2161713764096391
-0.025235122770220594     -0.060571768954443765    0.05442636205744937      5.7304253569070205E12    1.5443638482722988       -9.498165519308632       -0.8760698959888764
-0.026880271134791165     -0.06061871298154715     0.051540039880390597     5.831648000427213E12     1.4684670408906653       -9.224443236814306       -0.845861220134116
-0.0260686105633546       -0.0577098591324152      0.05296815147502925      6.55852663564418E12      0.7378059306674353       -9.372196275750198       -0.5500516845414372
-0.026861952849655736     -0.06641990245146451     0.05157235768119882      3.4739343752338384E12    2.890875743599125        -9.206373659061597       -1.5928223512700495
-0.027688498215607517     -0.0635275668306791      0.05010993604431918      4.985026759177348E12     2.124596484607385        -9.071048674640057       -1.1782202501664432
-0.02849329180580365      -0.06643642067981104     0.04867783996681495      3.6652436974883535E12    2.706194261817593        -8.912012589227457       -1.547128774638418
-0.023331761865893797     -0.0594989210976108      0.05772536633664877      5.68169104065196E12      1.328187394265123        -9.777253328786827       -0.7889287221688009
-0.023865627756766948     -0.06146629993704158     0.05680434121940215      5.251940761935894E12     1.8681324428400263       -9.69695542594598        -1.0151431515251697
-0.02470493612449729      -0.05860439011501299     0.05534960795635101      6.08638623944773E12      1.0246058432859715       -9.586900668525814       -0.6630306521338285
-0.023612066173036007     -0.05579061173870736     0.05724220012422757      6.150210237035422E12     0.23311490444097557      -9.753243418095604       -0.3517629010505061
-0.023471962979251994     -0.05764476641815909     0.0574838131428437       5.852822014143534E12     0.781145228695621        -9.766445255065598       -0.5663083471975991
-0.02484417274601346      -0.05675023543556128     0.05510747088674568      6.271417562495699E12     0.4999467242484581       -9.571808203729073       -0.4534915555863889
-0.02308484021926819      -0.052313802752662834    0.05815023316026935      6.043984330561613E12     -0.8142040801437523      -9.828887331579091       0.046401841470590954
-0.022214868526023657     -0.05050177116488769     0.059641550589873        5.639314278776678E12     -1.4022500386608887      -9.935656486373253       0.2696531841263726
-0.021341166036256003     -0.04868973957711252     0.061130564046611185     5.264046905219865E12     -2.01836611699675        -10.025547971082252      0.5095491198829503
-0.023794868429390364     -0.0497966174634722      0.056926606150665006     6.090201841645877E12     -1.5228961901091338      -9.726822459800808       0.33594962701634673
-0.02292796371905336      -0.047984585875697046    0.05841979566053851      5.59735215323243E12      -2.1181577288403126      -9.840223601002215       0.5660470246023954
-0.024502375474788753     -0.04727943217428155     0.0557014581586619       5.974149996951016E12     -2.188765858651158       -9.610307303514942       0.6237776357034787
-0.024320218469899176     -0.05327342644951675     0.05601745181372449      6.182538898141115E12     -0.4965108330164774      -9.653672556258103       -0.06580212128595572
-0.02502584960203856      -0.0507562411603261      0.05479118252082262      6.193867481860463E12     -1.1833141290505722      -9.539651409913017       0.21843888161997072
-0.025547927964893847     -0.054233050146370664    0.05388008029294508      6.298413713860269E12     -0.20779019927770806     -9.460281067324772       -0.17283755846166787
-0.019741982426393367     -0.04546470473413347     0.06383376331687665      3.553716526728499E12     -3.157342902874505       -10.150247033589263      0.9924417144436523
-0.021341166036255348     -0.044759551032718       0.06113056404660931      4.0980157652539414E12    -3.218286179096415       -10.004264753131027      1.0453153876643961
-0.01974198242639003      -0.04153451618973893     0.06383376331687332      2.54882268383825E12      -4.349956463076608       -10.128248991756331      1.6055695893990563
-0.02134116603625469      -0.04082936248832346     0.061130564046607425     3.045595825246258E12     -4.342867921644149       -9.977016873512667       1.6560517375027373
-0.019741982426386702     -0.0376043276453444      0.06383376331687         2.0326102570778333E12    -5.467231703726781       -10.100286288256271      2.293667546411356
-0.022927963719055377     -0.044054397331302515    0.058419795660538065     4.2654764385408867E12    -3.2500459732856077      -9.813690545265558       1.099421767266778
-0.03402589848881872      -0.06632962429826178     0.03860622638981785      3.0483931132931577E12    2.0923157892578104       -7.806723127542973       -1.4374374500128841
-0.032200314321971416     -0.06631406738501108     0.041974364551011244     3.2336405919396055E12    2.269339365192327        -8.186124059374528       -1.4613138174465892
-0.03329710056009055      -0.06320158445529642     0.03995627316511136      4.276759165037889E12     1.5969267994175043       -7.966723915082496       -1.0531778845599922
-0.0314640676310715       -0.06321160539559595     0.04332001691669889      4.543229816007636E12     1.7346803800269894       -8.343452479820828       -1.0744677410235957
-0.030356112094299722     -0.06634966617886082     0.045331569076676945     3.4673577333264395E12    2.473965522712254        -8.554553879936021       -1.4978775923217666
-0.029612416641228056     -0.06327278204299593     0.046672827032758706     4.791550196356889E12     1.9000365422218852       -8.709209933289097       -1.1084450049286718
-0.032565264274899766     -0.060073544612331053    0.041304659889689094     5.100541029057893E12     1.0418459590894378       -8.123463970514186       -0.7054187348549308
-0.030724782583708976     -0.06010914340618083     0.04466400923167074      5.387095854004978E12     1.1403295443738917       -8.497520168159294       -0.7241220803484327
-0.031830389633246386     -0.0569455047693657      0.04265138656355106      5.871528061439351E12     0.4270732682736109       -8.276943293838045       -0.39416000089770004
-0.028812440437810467     -0.060363928193863985    0.048107676527896756     5.637787302463125E12     1.3015581396011568       -8.869527483228863       -0.7807744719171704
-0.028009030743772655     -0.057455074344732036    0.04954053378160201      6.405788129983875E12     0.6285480704739171       -9.024203509930274       -0.48965343334531664
-0.029929623767069927     -0.05720028955704888     0.04610161214444262      6.176100685136312E12     0.5249705163426426       -8.659119182626224       -0.43768953879740446
-0.031143366534992507     -0.05375681043139397     0.04390392191010266      5.737736645900798E12     -0.24262239580341968     -8.415385252968871       -0.08066209519339
-0.029235392881482053     -0.05401159521907715     0.04735007773875441      6.004769764572044E12     -0.20626594229768733     -8.793948764083948       -0.11889366418695145
-0.02730759207085079      -0.0542663800067603      0.050784929623673994     6.223916935041332E12     -0.16422918272971176     -9.1554207137149         -0.16555958982872093
-0.030453723256724335     -0.050568116093422225    0.04515499213951263      5.7459457160063125E12    -0.9514173826118951      -8.550958093929772       0.24611085840842734
-0.028538541815879892     -0.0508229008811054      0.04859707821592458      6.018488592092443E12     -0.976601723669462       -8.92590922737175        0.2131772583210087
-0.029761459798441886     -0.04737942175545048     0.04640459725178099      5.863814586820866E12     -1.6993116921518159      -8.683661816720756       0.586158859907752
-0.02627152770512612      -0.047312762034671205    0.05261187337351411      5.996282956249869E12     -2.014513328231843       -9.321858708462806       0.6019179834385335
-0.02679025777018572      -0.050789571020715754    0.05169881479361319      6.091731808027488E12     -1.074407355566917       -9.242996935582015       0.2111480398039717
-0.028024555813010495     -0.04734609189506084     0.049512919737887136     5.938135047536963E12     -1.8513619393987286      -9.012976879531408       0.5893783915066246
-0.026207795522914384     -0.03758166108350667     0.05272434496234215      3.3663101333010923E12    -4.344450341522497       -9.282667581931845       2.0705842525755664
-0.025640878961918474     -0.04081425144709831     0.05371763954747478      3.7506961035355723E12    -3.7059346532900195      -9.401437431649136       1.51414497924354
-0.02407613111516751      -0.0375817533779783      0.05644124481019075      3.0690384380286846E12    -4.745263195257598       -9.621682729113198       2.134485989589351
-0.023502825811301097     -0.040818075354640417    0.05743098199521077      3.2699093485414507E12    -4.037677487300588       -9.722464941784175       1.5798686779073996
-0.02507240561254326      -0.044046841810689935    0.05471001061291469      4.628883704963678E12     -2.9873731589995733      -9.510650672176833       1.031876106952844
-0.021920860082991614     -0.03758930889859087     0.06014438426170002      2.663750976041773E12     -5.119523649325692       -9.894222297888005       2.208847087534614
-0.02683639054376656      -0.04408017167107959     0.05161739568370519      4.747414570207138E12     -2.7621027452443174      -9.212747279517423       1.0024308399954798
-0.027399696594027703     -0.04084758130748794     0.05062199447420355      3.7558281353951226E12    -3.4296463561988224      -9.094079241382444       1.4771140975937562
-0.028584251352536876     -0.044113501531469215    0.0485154119040165       4.67337341869575E12      -2.5479334730752625      -8.894410652978749       0.9823056333711517
-0.03924196273861451      -0.06615968373954978     0.028723965609407893     2.4501575406835146E12    1.6510156960422027       -6.689052048765197       -1.3295869707347976
-0.037521489201596474     -0.06624086503730041     0.03202726493033518      2.559577452483922E12     1.786245796450356        -7.065758779871606       -1.374443538388084
-0.03869428797740436      -0.06343117123514158     0.029780299168901087     3.4809240770933115E12    1.2973604008919748       -6.809232890697269       -1.0137138569461788
-0.03696795841211015      -0.0635000853104689      0.03308072673568971      3.6523655679557075E12    1.4037609009172358       -7.187122112989353       -1.0475660309199835
-0.03578280111833121      -0.0662975118902044      0.0353213518571385       2.7592042520432437E12    1.933345827522225        -7.4383158061308645      -1.410393698147446
-0.035223414300568696     -0.06354446494094958     0.036371941908354355     3.864264742557849E12     1.5220313316062128       -7.560861630434284       -1.0725117969998637
-0.038144760413786664     -0.06070265873073338     0.030835681634532784     4.1614865206141577E12    0.9122710402683236       -6.929634026924958       -0.7230847616554079
-0.03641257482021627      -0.0607593055836374      0.03413323744718275      4.333226845656997E12     0.9898419399106926       -7.308705740402715       -0.7459325419497307
-0.03759338004776142      -0.0579741462263252      0.03189011300630299      4.816955184536671E12     0.4957476141712491       -7.050255457448265       -0.45769968486248486
-0.0344996550435208       -0.06041642509798423     0.037724697739207044     4.692683675304055E12     1.0192796920923428       -7.719643237046183       -0.725122039279734
-0.033772857430010295     -0.057288385255018864    0.03907579351934394      5.472082369540422E12     0.4568362020907119       -7.875164111550248       -0.4142326973074346
-0.03569385423484865      -0.05763126574067204     0.035488702333594586     5.168992469822516E12     0.4797276507232582       -7.466268166086989       -0.435412591962363
-0.040953886671117795     -0.05981868474623094     0.025392535792492413     4.2920583507174233E12    0.6830147688466899       -6.298775331209256       -0.6021205970602815
-0.04179158406852601      -0.06183587385864505     0.023745734582363634     3.679369860654719E12     0.9278582173722351       -6.113168332408214       -0.7856228226362524
-0.040385293692954266     -0.06193235107733724     0.026504043062211505     3.7674143811586357E12    0.9996095131270362       -6.4299053887325135      -0.8207193749763941
-0.04122616798599838      -0.0639611566446333      0.024858480330219562     3.198193720558118E12     1.2335802375857972       -6.243871700760772       -1.023574584439826
-0.04262477300543674      -0.06385306297105914     0.02209672244057124      3.1679397130388926E12    1.149609642552415        -5.92991437719566        -0.9755880295349534
-0.042062533818544995     -0.06598996221192933     0.023210706666563996     2.261404429978515E12     1.4444589386991928       -6.060191056377519       -1.2328927752259882
-0.04345345348184998      -0.06587025208347326     0.020445499367115223     2.312146045105852E12     1.3482690443872298       -5.749013465571598       -1.1720162177563844
-0.039814652382119835     -0.06404601740844351     0.027614519667849998     3.2924610938154004E12    1.3222764888588736       -6.559997627917826       -1.0632081662012327
-0.04065870357079985      -0.06608643943062154     0.025970195413994895     2.3269783733678423E12    1.5453744892508503       -6.373537250775385       -1.2854163595521257
-0.039841515189931266     -0.05920383857292903     0.027562356852789797     4.469299851387044E12     0.6279703048503699       -6.5513543000048955      -0.5563761874181595
-0.03926892575000327      -0.06131750490403533     0.028671843342885747     3.97203754970147E12      0.9596292371454268       -6.6808125045200555      -0.7731000155278062
-0.038721346315479147     -0.0585889923996271      0.029728215924059987     4.589348371308414E12     0.5655479199585562       -6.801847675417898       -0.5082358833522272
-0.04642909983904214      -0.06556190991369742     0.01442188033959485      1.771618699056431E12     1.1512210967723455       -5.116946712411675       -1.0338516581772765
-0.04544389660114455      -0.06566766372038435     0.016432889814827538     1.9403905529628171E12    1.2148515847169097       -5.320021454296903       -1.0806795685850052
-0.046342449818727725     -0.06435224945948712     0.014599425351115143     2.4653259019672686E12    1.0282580084263713       -5.129496114582405       -0.9138163024009095
-0.04535665204805841      -0.0644565167244599      0.016610169361211385     2.6085188254691104E12    1.0868381620692456       -5.333631347169606       -0.9568691684379643
-0.04445201448208049      -0.06577044444364295     0.018440762824000995     2.0495551490631824E12    1.2805342339218708       -5.530710372016877       -1.126734421778041
-0.04436417539622263      -0.06455781090600435     0.018617776905248393     2.8262879608409805E12    1.1474704769725166       -5.545380755591552       -0.9991489772603259
-0.04625574785123118      -0.06314258900527679     0.014776946184911849     2.834658163900747E12     0.9027492293295326       -5.141692859867606       -0.8011377493176784
-0.04526935554779015      -0.06324536972853545     0.016787424729871644     2.986759033122193E12     0.9562790486707167       -5.346888583156781       -0.8404155709840593
-0.046168993936552515     -0.061932928551066496    0.014954442840984968     3.182936283187884E12     0.7746947594818289       -5.153536948267281       -0.6958159989275842