% Model:              wentai_test_m45.mph
% Version:            COMSOL 5.5.0.292
% Date:               Jan 3 2022, 17:47
% Dimension:          3
% Nodes:              22177
% Expressions:        4
% Description:        表面
% X                       Y                        Z                        Color                    DeformX                  DeformY                  DeformZ
-0.04851473881663425      -0.06529392956856216     0.010108330297943599     3.9893072277425964E11    0.46233414525933464      -2.1343510735931406      -0.42675745444707486
-0.048514721764346014     -0.06353093245825568     0.010108366803403778     6.155167758404945E11     0.38394854451388205      -2.130843664238766       -0.35191921834219175
-0.0487596548365826       -0.06529260895154608     0.009293285712236105     3.4332038392877234E11    0.45578207078115485      -2.102585035924693       -0.42455413415102156
-0.04875965131906641      -0.06353012398785107     0.009293312779510773     5.500921930847983E11     0.3781404669675503       -2.099851111612617       -0.349988709261237
-0.04851471445622633      -0.061767935347949186    0.010108382448604845     7.823182694654268E11     0.3051082588708586       -2.127347874184157       -0.2839955220388548
-0.04875965754571876      -0.061767639024156044    0.009293318986526324     6.742517587927991E11     0.3000441782563747       -2.0971288066003053      -0.28233782417299846
-0.04851471689227521      -0.060004938237642705    0.0101083772335468       9.601436745143125E11     0.22581328833026396      -2.123863703429313       -0.222986365537064
-0.04875457941268432      -0.0652923126277529      0.008479800673698218     3.257857390029155E11     0.4499028929163385       -2.0604941327057356      -0.4236881800869331
-0.04875458942994017      -0.06353033981066938     0.008479818302787373     5.0575476489791223E11    0.37300528603458194      -2.0585336934359564      -0.349395566412247
-0.0484995125449394       -0.06529304059718265     0.007667875182329935     3.6961427074181396E11    0.4446966116648858       -2.008078363936267       -0.42415959225480954
-0.048499512669747995     -0.05999515833337221     0.007667875434681681     8.975898114061187E11     0.21498019068769683      -2.00679297790987        -0.2214781464232354
-0.04849951262814513      -0.061761119087975706    0.007667875350564432     7.022884372155166E11     0.29113108243453384      -2.0067298628615293      -0.28169399494795905
-0.04875458945849632      -0.05999841830146241     0.008479818490634556     8.33497663549149E11      0.21823207629704067      -2.056485171791202       -0.22140106857366626
-0.048754589444218246     -0.06176437905606591     0.008479818396710965     6.321591561793651E11     0.295408056876365        -2.0572636440850096      -0.2817260007833894
-0.04849951258654226      -0.06352707984257917     0.007667875266447183     5.4595310429782336E11    0.36770322276026346      -2.007158324870328       -0.349254476891817
-0.04875965753267205      -0.060001678269552564    0.009293319090256262     8.426532523969717E11     0.22184310884456304      -2.0955087469643496      -0.22190380827827574
-0.04851471689227521      -0.05725706781259607     0.0101083772335468       1.0160457317871713E12    0.10218115912158651      -2.1196170019442295      -0.1399482006843516
-0.048759657532672064     -0.057253807844505934    0.009293319090256238     8.704913763113317E11     0.10046083354169569      -2.092552271337475       -0.13957454726372098
-0.048514716892275205     -0.054509197387549405    0.0101083772335468       1.0502415643655737E12    -0.021456254853964782    -2.1170753503553774      -0.06125741575925632
-0.04875965753267205      -0.05450593741945927     0.00929331909025621      8.90179207000029E11      -0.02092672652804556     -2.091300845606831       -0.06159266617678337
-0.048514716892275205     -0.05176132696250277     0.0101083772335468       1.0912230531629711E12    -0.14509895359638988     -2.1162387486627563      0.013085989238221766
-0.048754589458496325     -0.05725054787641576     0.008479818490634504     8.745928956142986E11     0.09909965489998336      -2.0548189220225357      -0.1397807113972691
-0.048499512669748        -0.0517216157071306      0.00766787543468168      1.1367651433933328E12    -0.1375314732526652      -2.006791500094178       0.015073643509393522
-0.048499512669748        -0.054479463249211144    0.007667875434681681     1.0280128392120508E12    -0.02023226036156145     -2.006261521118236       -0.06042736091420618
-0.048754589458496325     -0.051734852792254676    0.00847981849063452      9.189032971369562E11     -0.13997905608839817     -2.0540467730964598      0.013395556129790882
-0.048754589458496325     -0.05449270033433522     0.00847981849063451      8.983163680156279E11     -0.020542038138715878    -2.054167611768911       -0.061517781523434116
-0.048499512669748        -0.05723731079129168     0.00766787543468168      9.778750824367E11        0.0972716276185592       -2.006262013723466       -0.13927795755841582
-0.04875965753267206      -0.05174808987737872     0.009293319090256226     9.186610730332163E11     -0.1425015495363064      -2.090529189285986       0.012733004706066964
-0.048499512669748        -0.04344538320562743     0.007667875434681681     5.873522503337245E11     -0.4895804837695836      -2.0016774601908387      0.2870643654601452
-0.048499512669748        -0.046204127372795153    0.007667875434681681     7.976535306254739E11     -0.37186355864369897     -2.002839787264588       0.1847838350882625
-0.048754589458496304     -0.04346860144873633     0.008479818490632321     5.2448090361636414E11    -0.4966120877295791      -2.053477492686178       0.2845011793359566
-0.048754589458496325     -0.04622734561590407     0.008479818490632353     6.854707140167478E11     -0.37744021957522367     -2.053210470207509       0.18231593542641245
-0.048499512669748        -0.04896287153996288     0.00766787543468168      9.631992015096643E11     -0.25451388847139284     -2.0045444672323676      0.09412026110467858
-0.04875458945849631      -0.04898608978307179     0.00847981849063238      8.066229979176143E11     -0.2586356063744466      -2.0534858006228704      0.09174764790516704
-0.048759657532672036     -0.043491819691845235    0.009293319090254028     5.193145358680373E11     -0.5043095259295234      -2.0944890240608327      0.28408714484421027
-0.048759657532672064     -0.04625056385901299     0.00929331909025409      6.861702954617795E11     -0.383682714746697       -2.092792652029746       0.18199718739700463
-0.048514716892275205     -0.04351503793495414     0.0101083772335468       6.322119667701862E11     -0.5126727983694165      -2.1247120543148026      0.28582226198490623
-0.048514716892275205     -0.0490125639533199      0.0101083772335468       9.394003874056006E11     -0.2684293023283054      -2.1181301694731216      0.09359388433003057
-0.048759657532672064     -0.04899932686819586     0.009293319090255159     7.864342185907078E11     -0.2634949990452884      -2.091194413454374       0.09216299813965946
-0.0485147168922752       -0.04626380094413702     0.0101083772335468       7.986034628646201E11     -0.3909539172526476      -2.1209546046904704      0.18450597524559204
-0.048499512669738        -0.0381431649117068      0.00766787543467168      2.347590476127513E11     -0.7170307656209811      -2.00148046242866        0.538324476045823
-0.04849951266974134      -0.039910571009680346    0.007667875434675014     2.2176427971451392E11    -0.640651282488635       -2.000882384636439       0.4473714283404353
-0.04875458338242887      -0.03819984180662221     0.008478867716049884     1.7774705510634668E11    -0.7225833558371391      -2.0553378928763317      0.534766284980789
-0.048754586420463146     -0.03995200176076689     0.008479343103340566     1.8270315997980438E11    -0.6472282355975131      -2.054435335592445       0.4439152998025679
-0.04849951266974467      -0.041677977107653884    0.0076678754346783465    3.7997350870336426E11    -0.5648345218715023      -2.000948050557165       0.36361805814520926
-0.04875458945849741      -0.04170416171491155     0.008479818490631246     3.5219575631393286E11    -0.5724358378731007      -2.054196522021506       0.3602639921345086
-0.0487596514566046       -0.03822602641387987     0.009292368315671588     1.390892761703626E11     -0.7306448932363172      -2.0990327755780167      0.5349888699852272
-0.04875965753266982      -0.03996294022419568     0.00929331909024962      1.9200889154421954E11    -0.6563141358894113      -2.0978257388024653      0.4442399473341728
-0.048514716892265206     -0.0382217187334798      0.0101083772335368       1.9049671060035574E11    -0.7412153778185154      -2.132565110533715       0.5389922310591376
-0.04851471689227187      -0.04175059820112936     0.010108377233543466     3.9991505798709314E11    -0.5898055170115619      -2.1277451406252563      0.3627630259554569
-0.048759657532670926     -0.04172737995802046     0.009293319090251825     3.300300140833817E11     -0.580787760322357       -2.096365081883724       0.3604389332287617
-0.048514716892268536     -0.03998615846730458     0.01010837723354013      2.4423452545951834E11    -0.6659863768279282      -2.1303628260315604      0.4471530156468674
-0.02194908778754411      -0.0603934520802086      0.060095426615922515     2.331671908447285E12     0.7418477626221766       -4.4744644154404885      -0.417485652590962
-0.021216005879843233     -0.0622920453783423      0.06134316011669001      1.914062578219323E12     1.016979197135017        -4.502412963572636       -0.53827653464677
-0.021216005879840554     -0.059833628181012344    0.06134316011669157      2.1953857678298154E12    0.6770693987396866       -4.508976186995561       -0.3918171766264634
-0.020480304092791092     -0.061732221479146046    0.06258927235034163      1.8100077254925435E12    0.9559384464596415       -4.531444786714605       -0.5124241371693451
-0.02048030409279076      -0.064190638676476       0.06258927235033918      1.5179518329601113E12    1.2934461996507562       -4.525152470316245       -0.6695218518844438
-0.019741982426390033     -0.06363081477727973     0.06383376331687333      1.357914929315546E12     1.236143062182495        -4.5487043450451115      -0.6434855328940926
-0.019741982426386702     -0.0660892319746097      0.06383376331687         8.877730819908494E11     1.571248770169394        -4.542682935671316       -0.8112216043039834
-0.020480304092791418     -0.059273804281816084    0.06258927235034405      2.1117044067275156E12    0.6080245449755216       -4.53877366076528        -0.36492768205811293
-0.01974198242639337      -0.061172397579949786    0.06383376331687668      1.6648779869080864E12    0.8906312059025907       -4.555762312071222       -0.48535072108806837
-0.0197419824263967       -0.05871398038261981     0.06383376331688         1.942704577414865E12     0.5347132013296817       -4.563856836749647       -0.3368171688859108
-0.022090253392744327     -0.05853929740075689     0.05985445729791768      2.443555151519549E12     0.4856064171764846       -4.471528758249914       -0.3114199085632112
-0.021357677983842128     -0.057979473501560644    0.06110250223915622      2.331452407250838E12     0.4145280605237642       -4.507282967061753       -0.2848445497626462
-0.02062248269559434      -0.057419649602364356    0.06234892591327818      2.257006430050583E12     0.33918321398936846      -4.538322878088239       -0.25704817235822935
-0.022231321078370364     -0.056685142721305176    0.0596134281551018       2.576244192160432E12     0.22892040032247812      -4.467515907597395       -0.20898788250631095
-0.021499252168269516     -0.056125318822108916    0.06086178453680983      2.474087077697471E12     0.151542050899527        -4.504512553666002       -0.18150564086967952
-0.022372290844422226     -0.05483098804185345     0.0593723391874749       2.705499159922828E12     -0.028210287939842947    -4.462425863482933       -0.11018957442026114
-0.021499252168270165     -0.0530189564540783      0.06086178453680871      2.513331707120743E12     -0.28958395817625987     -4.507487589257059       -0.01280719494376382
-0.020622482695594663     -0.05431328723433376     0.062348925913277634     2.2962693466552114E12    -0.11149425051428904     -4.54318252781596        -0.08233198944846148
-0.0197419824263967       -0.05560761801458921     0.06383376331687998      2.0072859789414595E12    0.07448428139815341      -4.57060110061403        -0.15608324899229065
-0.02062248269559499      -0.051206924866303155    0.06234892591327707      2.344124016264708E12     -0.5635891823311043      -4.5449543634928595      0.09206525142809317
-0.0197419824263967       -0.05250125564655862     0.06383376331688         2.0478772823561973E12    -0.3871621058465326      -4.574257550427593       0.024331728868116225
-0.019741982426396697     -0.04939489327852801     0.06383376331687998      2.1041244335088235E12    -0.8502259604043764      -4.574826186190335       0.20442776469530988
-0.02248663292356711      -0.062360830919639364    0.0591766222803309       2.1440339172172307E12    0.9939072040957652       -4.442127120031451       -0.5252109792769389
-0.021755514520240153     -0.06426049903834471     0.060425487055779034     1.7161873198870442E12    1.2648806530511882       -4.47368931915025        -0.6550638772830603
-0.02302275315468914      -0.06432820975907014     0.0582569524632358       1.9301262694407312E12    1.2301976905859269       -4.4083882642214745      -0.6389416751642929
-0.0222935982557361       -0.06622895269834711     0.05950694851336455      1.3186606681815962E12    1.4970131539839324       -4.443564114326923       -0.7778565891207276
-0.023557448480910206     -0.06629558859850092     0.057336417164637214     1.4673493426589207E12    1.4507192220926617       -4.373247848010558       -0.758677740253024
-0.0210217762375616       -0.06616016715705005     0.061672730564108824     1.162841680095445E12     1.5371896700095098       -4.500042476880509       -0.7953712104710474
-0.024398068742739133     -0.06343367877647235     0.05588245062065203      2.1715392083188433E12    1.0678659161533055       -4.3260943249968715      -0.5646162805981961
-0.025216671741357926     -0.06637295842436115     0.05445855008047291      1.541034496700379E12     1.378538019377884        -4.263815540864108       -0.7375933219602018
-0.026050254555248276     -0.06349583570295415     0.05300035599004049      2.209123926233193E12     1.0146985331350518       -4.209790657862413       -0.5472771193844636
-0.025235122770220594     -0.060571768954443765    0.05442636205744937      2.578691410608385E12     0.6949637317225195       -4.274174483689374       -0.39423145319509734
-0.026880271134791165     -0.06061871298154715     0.051540039880390597     2.624241600192466E12     0.6608101684007894       -4.1509994565669075      -0.38063754906045466
-0.0260686105633546       -0.0577098591324152      0.05296815147502925      2.951336986040153E12     0.33201266880030395      -4.217488324088069       -0.24752325804372804
-0.026861952849655736     -0.06641990245146451     0.05157235768119882      1.563270468855353E12     1.3008940846196506       -4.14286814657819        -0.7167700580716725
-0.027688498215607517     -0.0635275668306791      0.05010993604431918      2.24326204162999E12      0.956068418073342        -4.081971903588487       -0.5301991125750241
-0.02849329180580365      -0.06643642067981104     0.04867783996681495      1.6493596638698818E12    1.217787417817961        -4.0104056651528035      -0.6962079485874358
-0.023331761865893797     -0.0594989210976108      0.05772536633664877      2.556760968293636E12     0.5976843274192751       -4.399763997954588       -0.35501792497605555
-0.023865627756766948     -0.06146629993704158     0.05680434121940215      2.363373342871389E12     0.8406595992780038       -4.363629941676199       -0.45681441818643725
-0.02470493612449729      -0.05860439011501299     0.05534960795635101      2.7388738077517554E12    0.4610726294786509       -4.314105300837115       -0.29836379346031083
-0.023612066173036007     -0.05579061173870736     0.05724220012422757      2.7675946066662056E12    0.10490170699836808      -4.388959538143534       -0.1582933054727933
-0.023471962979251994     -0.05764476641815909     0.0574838131428437       2.633769906364855E12     0.3515153529129789       -4.3949003647800335      -0.2548387562389992
-0.02484417274601346      -0.05675023543556128     0.05510747088674568      2.8221379031233574E12    0.22497602591175034      -4.307313691678579       -0.20407120001394893
-0.02308484021926819      -0.052313802752662834    0.05815023316026935      2.7197929487530303E12    -0.3663918360648008      -4.422999299211112       0.02088082866172883
-0.022214868526023657     -0.05050177116488769     0.059641550589873        2.5376914254497734E12    -0.631012517397537       -4.471045418868497       0.12134393285684679
-0.021341166036256003     -0.04868973957711252     0.061130564046611185     2.3688211073491704E12    -0.9082647526487009      -4.5114965869875565      0.22929710394732444
-0.023794868429390364     -0.0497966174634722      0.056926606150665006     2.740590828740947E12     -0.6853032855492464      -4.3770701069108755      0.15117733215733783
-0.02292796371905336      -0.047984585875697046    0.05841979566053851      2.5188084689548496E12    -0.9531709779783021      -4.42810062045152        0.25472116107107645
-0.024502375474788753     -0.04727943217428155     0.0557014581586619       2.6883674986282437E12    -0.9849446363931796      -4.324638286582224       0.2806999360665659
-0.024320218469899176     -0.05327342644951675     0.05601745181372449      2.782142504163794E12     -0.22342987485751017     -4.3441526503166505      -0.02961095457872691
-0.02502584960203856      -0.0507562411603261      0.05479118252082262      2.78724036683751E12      -0.5324913580728761      -4.292843134461351       0.09829749672895857
-0.025547927964893847     -0.054233050146370664    0.05388008029294508      2.8342861712374126E12    -0.09350558967504824     -4.257126480296633       -0.07777690130780607
-0.019741982426393367     -0.04546470473413347     0.06383376331687665      1.5991724370279792E12    -1.4208043062937392      -4.5676111651157285      0.4465987714996743
-0.021341166036255348     -0.044759551032718       0.06113056404660931      1.8441070943644731E12    -1.4482287805935952      -4.5019191389095035      0.47039192444901035
-0.01974198242639003      -0.04153451618973893     0.06383376331687332      1.1469702077273152E12    -1.957480408384729       -4.557712046290908       0.7225063152296456
-0.02134116603625469      -0.04082936248832346     0.061130564046607425     1.3705181213609482E12    -1.9542905647401165      -4.489657593081239       0.7452232818763029
-0.019741982426386702     -0.0376043276453444      0.06383376331687         9.146746156851031E11     -2.4602542666773464      -4.545128829715877       1.0321503958852238
-0.022927963719055377     -0.044054397331302515    0.058419795660538065     1.919464397343611E12     -1.4625206879787274      -4.416160745370021       0.49473979527008366
-0.03402589848881872      -0.06632962429826178     0.03860622638981785      1.3717769009819773E12    0.9415421051660576       -3.5130254073947182      -0.6468468525059362
-0.032200314321971416     -0.06631406738501108     0.041974364551011244     1.4551382663729033E12    1.0212027143365905       -3.683755826718941       -0.6575912178511066
-0.03329710056009055      -0.06320158445529642     0.03995627316511136      1.924541624267178E12     0.7186170597378966       -3.5850257617875108      -0.4739300480521122
-0.0314640676310715       -0.06321160539559595     0.04332001691669889      2.0444534172035852E12    0.7806061710121639       -3.7545536159197828      -0.48351048346073605
-0.030356112094299722     -0.06634966617886082     0.045331569076676945     1.560310979996984E12     1.1132844852205581       -3.8495492459716356      -0.6740449165449396
-0.029612416641228056     -0.06327278204299593     0.046672827032758706     2.156197588360774E12     0.855016443999866        -3.919144469980527       -0.4988002522180228
-0.032565264274899766     -0.060073544612331053    0.041304659889689094     2.295243463076217E12     0.46883068159024155      -3.6555587867317794      -0.31743843068481326
-0.030724782583708976     -0.06010914340618083     0.04466400923167074      2.424193134302457E12     0.5131482949682433       -3.823884075672101       -0.3258549361568908
-0.031830389633246386     -0.0569455047693657      0.04265138656355106      2.642187627647931E12     0.19218297072309265      -3.7246244822275245      -0.17737200040403958
-0.028812440437810467     -0.060363928193863985    0.048107676527896756     2.5370042861086445E12    0.5857011628205119       -3.991287367453434       -0.35134851236282594
-0.028009030743772655     -0.057455074344732036    0.04954053378160201      2.8826046584929897E12    0.28284663171322444      -4.060891579469079       -0.22034404500547156
-0.029929623767069927     -0.05720028955704888     0.04610161214444262      2.7792453083115996E12    0.23623673235415404      -3.896603632182231       -0.1969602924589088
-0.031143366534992507     -0.05375681043139397     0.04390392191010266      2.5819814906555996E12    -0.10918007811160023     -3.7869233638364057      -0.036297942837078864
-0.029235392881482053     -0.05401159521907715     0.04735007773875441      2.7021463940576455E12    -0.09281967403402532     -3.9572769438382163      -0.053502148884182844
-0.02730759207085079      -0.0542663800067603      0.050784929623673994     2.8007626207688496E12    -0.07390313222844137     -4.119939321172168       -0.07450181542298041
-0.030453723256724335     -0.050568116093422225    0.04515499213951263      2.5856755722030693E12    -0.4281378221754443      -3.8479311422688216      0.11074988628376128
-0.028538541815879892     -0.0508229008811054      0.04859707821592458      2.708319866441829E12     -0.4394707756513559      -4.016659152317736       0.09592976624442254
-0.029761459798441886     -0.04737942175545048     0.04640459725178099      2.63871656406961E12      -0.7646902614684398      -3.907647817524772       0.2637714869584809
-0.02627152770512612      -0.047312762034671205    0.05261187337351411      2.6983273303126865E12    -0.9065309977044742      -4.194836418808738       0.27086309254733704
-0.02679025777018572      -0.050789571020715754    0.05169881479361319      2.741279313612618E12     -0.48348331000522        -4.159348621012377       0.09501661791175696
-0.028024555813010495     -0.04734609189506084     0.049512919737887136     2.67216077139186E12      -0.8331128727295608      -4.055839595789588       0.26522027617797533
-0.026207795522914384     -0.03758166108350667     0.05272434496234215      1.5148395599855725E12    -1.9550026536853553      -4.177200411869811       0.9317629136590938
-0.025640878961918474     -0.04081425144709831     0.05371763954747478      1.6878132465911284E12    -1.667670593980719       -4.230646844242596       0.6813652406596495
-0.02407613111516751      -0.0375817533779783      0.05644124481019075      1.381067297112987E12     -2.1353684378661733      -4.329757228101444       0.9605186953153049
-0.023502825811301097     -0.040818075354640417    0.05743098199521077      1.4714592068437832E12    -1.8169548692854944      -4.37510922380339        0.7109409050583936
-0.02507240561254326      -0.044046841810689935    0.05471001061291469      2.082997667233845E12     -1.3443179215499934      -4.279792802480068       0.46434424812880704
-0.021920860082991614     -0.03758930889859087     0.06014438426170002      1.1986879392188792E12    -2.3037856421968366      -4.452400034050132       0.9939811893906816
-0.02683639054376656      -0.04408017167107959     0.05161739568370519      2.1363365565933806E12    -1.242946235360114       -4.1457362757833085      0.4510938779979885
-0.027399696594027703     -0.04084758130748794     0.05062199447420355      1.6901226609279194E12    -1.5433408602896648      -4.092335658622562       0.6647013439172413
-0.028584251352536876     -0.044113501531469215    0.0485154119040165       2.10301803841325E12      -1.1465700628840265      -4.002484793840884       0.44203753501703724
-0.03924196273861451      -0.06615968373954978     0.028723965609407893     1.1025708933077117E12    0.7429570632190314       -3.0100734219446577      -0.598314136830791
-0.037521489201596474     -0.06624086503730041     0.03202726493033518      1.1518098536178662E12    0.8038106084027015       -3.1795914509425645      -0.6184995922747715
-0.03869428797740436      -0.06343117123514158     0.029780299168901087     1.5664158346921655E12    0.5838121804014116       -3.064154800814099       -0.4561712356258952
-0.03696795841211015      -0.0635000853104689      0.03308072673568971      1.6435645055801968E12    0.6316924054127795       -3.234204950845557       -0.47140471391410793
-0.03578280111833121      -0.0662975118902044      0.0353213518571385       1.2416419134195283E12    0.8700056223850434       -3.3472421127592504      -0.6346771641664863
-0.035223414300568696     -0.06354446494094958     0.036371941908354355     1.7389191341511323E12    0.6849140992228193       -3.4023877336957957      -0.48263030865005524
-0.038144760413786664     -0.06070265873073338     0.030835681634532784     1.8726689342765466E12    0.41052196812075004      -3.118335312116567       -0.32538814274503136
-0.03641257482021627      -0.0607593055836374      0.03413323744718275      1.9499520805457893E12    0.4454288729598157       -3.288917583181577       -0.3356696438774764
-0.03759338004776142      -0.0579741462263252      0.03189011300630299      2.1676298330416536E12    0.22308642637704668      -3.1726149558520604      -0.20596485818819968
-0.0344996550435208       -0.06041642509798423     0.037724697739207044     2.1117076538869663E12    0.45867586144155426      -3.4738394566711577      -0.3263049176759761
-0.033772857430010295     -0.057288385255018864    0.03907579351934394      2.462437066293365E12     0.2055762909407951       -3.543823850197995       -0.18640471378842188
-0.03569385423484865      -0.05763126574067204     0.035488702333594586     2.3260466114203066E12    0.21587744282544652      -3.359820674739508       -0.195935666383142
-0.040953886671117795     -0.05981868474623094     0.025392535792492413     1.9314262578230168E12    0.3073566459810103       -2.834448899044466       -0.2709542686772238
-0.04179158406852601      -0.06183587385864505     0.023745734582363634     1.6557164372947798E12    0.4175361978175181       -2.7509257495839874      -0.35353027018642347
-0.040385293692954266     -0.06193235107733724     0.026504043062211505     1.6953364715215566E12    0.4498242809071788       -2.8934574249299376      -0.3693237187394847
-0.04122616798599838      -0.0639611566446333      0.024858480330219562     1.4391871742513071E12    0.5551111069136337       -2.8097422653426443      -0.4606085629980418
-0.04262477300543674      -0.06385306297105914     0.02209672244057124      1.4255728708676636E12    0.517324339148611        -2.6684614697383284      -0.43901461329085106
-0.042062533818544995     -0.06598996221192933     0.023210706666563996     1.0176319934904646E12    0.6500065224146738       -2.727085975370171       -0.5548017488518269
-0.04345345348184998      -0.06587025208347326     0.020445499367115223     1.0404657202977678E12    0.6067210699742889       -2.5870560595074905      -0.5274072979905068
-0.039814652382119835     -0.06404601740844351     0.027614519667849998     1.4816074922171042E12    0.595024419986519        -2.9519989325633347      -0.4784436747906738
-0.04065870357079985      -0.06608643943062154     0.025970195413994895     1.0471402680156467E12    0.6954185201629213       -2.868091762849227       -0.5784373617985883
-0.039841515189931266     -0.05920383857292903     0.027562356852789797     2.0111849331243777E12    0.28258663718266136      -2.948109435002518       -0.2503692843382633
-0.03926892575000327      -0.06131750490403533     0.028671843342885747     1.787416897365827E12     0.4318331567154506       -3.0063656270343464      -0.3478950069876152
-0.038721346315479147     -0.0585889923996271      0.029728215924059987     2.0652067670889526E12    0.2544965639813401       -3.060831453938383       -0.22870614750858856
-0.04642909983904214      -0.06556190991369742     0.01442188033959485      7.972284145755702E11     0.518049493547594        -2.3026260205854925      -0.4652332461799174
-0.04544389660114455      -0.06566766372038435     0.016432889814827538     8.731757488334457E11     0.5466832131226463       -2.3940096544338565      -0.4863058058633921
-0.046342449818727725     -0.06435224945948712     0.014599425351115143     1.1093966558855103E12    0.46271610379189926      -2.308273251562323       -0.41121733608054956
-0.04535665204805841      -0.0644565167244599      0.016610169361211385     1.1738334714612966E12    0.4890771729311911       -2.4001341062265737      -0.43059112579721937
-0.04445201448208049      -0.06577044444364295     0.018440762824000995     9.222998170785664E11     0.5762404052648779       -2.4888196674078555      -0.5070304898002552
-0.04436417539622263      -0.06455781090600435     0.018617776905248393     1.2718295823786323E12    0.516361714637662        -2.4954213400164593      -0.4496170397672775
-0.04625574785123118      -0.06314258900527679     0.014776946184911849     1.2755961737555986E12    0.4062371531983151       -2.3137617869406655      -0.3605119871930933
-0.04526935554779015      -0.06324536972853545     0.016787424729871644     1.3440415649051934E12    0.4303255719018463       -2.4060998624208034      -0.3781870069429582
-0.046168993936552515     -0.061932928551066496    0.014954442840984968     1.4323213274348447E12    0.3486126417668414       -2.319091626720521       -0.31311719951754874