% Model:              wentai_test_m17.mph
% Version:            COMSOL 5.5.0.292
% Date:               Jan 3 2022, 17:17
% Dimension:          3
% Nodes:              22177
% Expressions:        4
% Description:        表面
% X                       Y                        Z                        Color                    DeformX                  DeformY                  DeformZ
-0.04851473881663425      -0.06529392956856216     0.010108330297943599     1.5070716189218286E11    0.17465956594914142      -0.806310405346376       -0.16121948271976252
-0.048514721764346014     -0.06353093245825568     0.010108366803403778     2.325285596932896E11     0.14504722789827373      -0.8049853840351511      -0.1329472601994399
-0.0487596548365826       -0.06529260895154608     0.009293285712236105     1.2969881166794131E11    0.172184337813179        -0.794309902230681       -0.16038711727468996
-0.04875965131906641      -0.06353012398785107     0.009293312779510773     2.0781260621524332E11    0.1428530652698169       -0.7932770863797931      -0.1322179567689324
-0.04851471445622633      -0.061767935347949186    0.010108382448604845     2.95542457266644E11      0.11526311999726666      -0.803664752237178       -0.10728719715894006
-0.04875965754571876      -0.061767639024156044    0.009293318986526324     2.5471733102480267E11    0.11335002287631535      -0.792248660042157       -0.10666095574299753
-0.04851471689227521      -0.060004938237642705    0.0101083772335468       3.6272094359899164E11    0.08530724224612017      -0.8023485099524569      -0.08423929359826299
-0.04875457941268432      -0.0652923126277529      0.008479800673698218     1.2307461247585031E11    0.16996331506440082      -0.7784088943525784      -0.1600599790728059
-0.04875458942994017      -0.06353033981066938     0.008479818302787373     1.9106291112768036E11    0.1409131080285443       -0.7776682839620276      -0.13199388058161332
-0.0484995125449394       -0.06529304059718265     0.007667875182329935     1.396320577949418E11     0.16799649770280697      -0.7586073817120687      -0.16023806811411032
-0.048499512669747995     -0.05999515833337221     0.007667875434681681     3.390894842098323E11     0.08121473869196572      -0.7581217914357129      -0.08366952193324438
-0.04849951262814513      -0.061761119087975706    0.007667875350564432     2.6530896509281924E11    0.10998285334359628      -0.7580979479729578      -0.10641773136934513
-0.04875458945849632      -0.05999841830146241     0.008479818490634556     3.148768950263374E11     0.08244322881120206      -0.7768943980076712      -0.08364040363436143
-0.048754589444218246     -0.06176437905606591     0.008479818396710965     2.3881568115337808E11    0.11159859924388159      -0.777188487540746       -0.1064298224625601
-0.04849951258654226      -0.06352707984257917     0.007667875266447183     2.0624895045232578E11    0.13891010634721002      -0.7582598113984096      -0.1319405800963004
-0.04875965753267205      -0.060001678269552564    0.009293319090256262     3.183356730343883E11     0.08380739666258687      -0.7916366375132525      -0.08383032752270098
-0.04851471689227521      -0.05725706781259607     0.0101083772335468       3.83839498562867E11      0.03860177122519195      -0.8007442005031047      -0.05286932021851351
-0.048759657532672064     -0.057253807844505934    0.009293319090256238     3.2885229762157043E11    0.0379518704502712       -0.7905197467213007      -0.05272816225951277
-0.048514716892275205     -0.054509197387549405    0.0101083772335468       3.9675792420021686E11    -0.008105696263219067    -0.7997840210143674      -0.02314169036649927
-0.04875965753267205      -0.05450593741945927     0.00929331909025621      3.362899225466545E11     -0.007905652229527282    -0.7900469858899636      -0.023268340524059794
-0.048514716892275205     -0.05176132696250277     0.0101083772335468       4.122398199639948E11     -0.054815160219112875    -0.7994679714862453      0.004943595957779723
-0.048754589458496325     -0.05725054787641576     0.008479818490634504     3.304017604691492E11     0.03743764740749892      -0.7762649258731195      -0.0528060464877345
-0.048499512669748        -0.0517216157071306      0.00766787543468168      4.2944460960122125E11    -0.051956334313805155    -0.7581212331500814      0.005694487571070916
-0.048499512669748        -0.054479463249211144    0.007667875434681681     3.88360405811445E11      -0.007643298345495889    -0.7579210188702344      -0.022828114091838974
-0.048754589458496325     -0.051734852792254676    0.00847981849063452      3.4714124548404333E11    -0.05288097671763724     -0.7759732251680034      0.005060543450238533
-0.048754589458496325     -0.05449270033433522     0.00847981849063451      3.393639611515248E11     -0.007760325505209681    -0.7760188753330328      -0.023240050766150374
-0.048499512669748        -0.05723731079129168     0.00766787543468168      3.694194754793435E11     0.0367470593230944       -0.7579212049654449      -0.05261611725994407
-0.04875965753267206      -0.05174808987737872     0.009293319090256226     3.470497386004993E11     -0.05383391868607315     -0.7897554712800581      0.004810246245808135
-0.048499512669748        -0.04344538320562743     0.007667875434681681     2.2188862783882358E11    -0.18495262713739738     -0.756189262520746       0.10844653805614812
-0.048499512669748        -0.046204127372795153    0.007667875434681681     3.0133577814820154E11    -0.14048178876934125     -0.7566283638595234      0.06980722659347625
-0.048754589458496304     -0.04346860144873633     0.008479818490632321     1.9813723019728015E11    -0.18760901085433612     -0.7757581636799871      0.10747822329856703
-0.048754589458496325     -0.04622734561590407     0.008479818490632353     2.589556029975794E11     -0.1425885273423518      -0.7756572885213425      0.06887490894388076
-0.048499512669748        -0.04896287153996288     0.00766787543468168      3.6387525379739417E11    -0.09614969116147716     -0.7572723540693017      0.035556543098450515
-0.04875458945849631      -0.04898608978307179     0.00847981849063238      3.047242435692915E11     -0.09770678459055956     -0.7757613022336988      0.03466022255684062
-0.048759657532672036     -0.043491819691845235    0.009293319090254028     1.9618549127096472E11    -0.19051693195075392     -0.7912514088614839      0.1073218102684087
-0.048759657532672064     -0.04625056385901299     0.00929331909025409      2.5921988932163855E11    -0.14494680329484144     -0.7906105572054172      0.06875449302170801
-0.048514716892275205     -0.04351503793495414     0.0101083772335468       2.3883563182201974E11    -0.19367639042665077     -0.8026689980652365      0.1079772989656731
-0.048514716892275205     -0.0490125639533199      0.0101083772335468       3.54884590694765E11      -0.10140662528219013     -0.8001825082367244      0.035357689650354324
-0.048759657532672064     -0.04899932686819586     0.009293319090255159     2.970973713814168E11     -0.09954255515407293     -0.7900067781881452      0.03481713264539648
-0.0485147168922752       -0.04626380094413702     0.0101083772335468       3.0169464143929877E11    -0.14769370201803608     -0.801249517096388       0.06970225731965211
-0.048499512669738        -0.0381431649117068      0.00766787543467168      8.868675129597209E10     -0.2708782891452575      -0.756114841144004       0.20336702424994366
-0.04849951266974134      -0.039910571009680346    0.007667875434675014     8.377761675705075E10     -0.24202381774808224     -0.7558889006447731      0.16900698401563702
-0.04875458338242887      -0.03819984180662221     0.008478867716049884     6.714888746628946E10     -0.27297593433690504     -0.7764609815294488      0.2020228187370494
-0.048754586420463146     -0.03995200176076689     0.008479343103340566     6.902119375049947E10     -0.2445084444768683      -0.776120015444514       0.16770133545743363
-0.04849951266974467      -0.041677977107653884    0.0076678754346783465    1.435455476903478E11     -0.21338193041212883     -0.7559137077703537      0.1373668219510385
-0.04875458945849741      -0.04170416171491155     0.008479818490631246     1.3305173012446927E11    -0.21625353867805353     -0.7760297969843908      0.13609973034752593
-0.0487596514566046       -0.03822602641387987     0.009292368315671588     5.2544837649846146E10    -0.2760214040196579      -0.7929679372119732      0.20210690640538437
-0.04875965753266982      -0.03996294022419568     0.00929331909024962      7.253669234059622E10     -0.2479408956967598      -0.7925119455413344      0.1678239800804594
-0.048514716892265206     -0.0382217187334798      0.0101083772335368       7.196542398472623E10     -0.28001469819351626     -0.805635708191577       0.20361928725494863
-0.04851471689227187      -0.04175059820112936     0.010108377233543466     1.5107902186292316E11    -0.22281541746081454     -0.8038148306711032      0.1370438097905965
-0.048759657532670926     -0.04172737995802046     0.009293319090251825     1.2467800528454327E11    -0.2194087093796945      -0.791960141816619       0.13616581920534981
-0.048514716892268536     -0.03998615846730458     0.01010837723354013      9.226637625871454E10     -0.251594853383103       -0.8048037340465499      0.1689244725536883
-0.02194908778754411      -0.0603934520802086      0.060095426615922515     8.808538318241514E11     0.2802535992021876       -1.6903532231211051      -0.1577168020196633
-0.021216005879843233     -0.0622920453783423      0.06134316011669001      7.230903071182147E11     0.3841921411012493       -1.7009115635235619      -0.20334891300634683
-0.021216005879840554     -0.059833628181012344    0.06134316011669157      8.293679564946562E11     0.25578177285620257      -1.7033910034827966      -0.14801982221453952
-0.020480304092791092     -0.061732221479146046    0.06258927235034163      6.837806960992501E11     0.36113230196638435      -1.7118791411520293      -0.19358245174088198
-0.02048030409279076      -0.064190638676476       0.06258927235033918      5.734484700645728E11     0.48863523091232236      -1.7095020438465147      -0.25293047728288526
-0.019741982426390033     -0.06363081477727973     0.06383376331687333      5.1299008426023645E11    0.4669873789885777       -1.7183994187417582      -0.24309453455707938
-0.019741982426386702     -0.0660892319746097      0.06383376331687         3.3538094198951953E11    0.5935828686354071       -1.7161246640899641      -0.3064614948492787
-0.020480304092791418     -0.059273804281816084    0.06258927235034405      7.977549978648318E11     0.22969816144424515      -1.714647826903878       -0.13786156871482136
-0.01974198242639337      -0.061172397579949786    0.06383376331687668      6.28953905982805E11      0.33646067776554706      -1.7210657618398868      -0.18335471678082277
-0.0197419824263967       -0.05871398038261981     0.06383376331688         7.339106179206814E11     0.20200276496631545      -1.7241236933843498      -0.12724204152050886
-0.022090253392744327     -0.05853929740075689     0.05985445729791768      9.231208347487656E11     0.1834513131728257       -1.6892441970717735      -0.117647520953805
-0.021357677983842128     -0.057979473501560644    0.06110250223915622      8.807709091483135E11     0.15659948955879166      -1.7027513426192105      -0.10760794096624338
-0.02062248269559434      -0.057419649602364356    0.06234892591327818      8.526468733250938E11     0.12813588087878516      -1.7144775312260372      -0.09710708728408735
-0.022231321078370364     -0.056685142721305176    0.0596134281551018       9.732478056416909E11     0.08648104016703327      -1.6877282312702766      -0.07895097778764051
-0.021499252168269516     -0.056125318822108916    0.06086178453680983      9.34655117966798E11      0.05724921928495014      -1.7017047420034588      -0.06856879761764104
-0.022372290844422226     -0.05483098804185345     0.0593723391874749       1.0220774601143235E12    -0.010657219815189746    -1.6858053257166141      -0.041627172521169827
-0.021499252168270165     -0.0530189564540783      0.06086178453680871      9.494808668548691E11     -0.10939838409484734     -1.7028286443377838      -0.004838273619346324
-0.020622482695594663     -0.05431328723433376     0.062348925913277634     8.674795307037922E11     -0.04212005010603338     -1.71631339890066        -0.03110319598145331
-0.0197419824263967       -0.05560761801458921     0.06383376331687998      7.583080362669551E11     0.02813850637647578      -1.7266715263992702      -0.058964782913535435
-0.02062248269559499      -0.051206924866303155    0.06234892591327707      8.855579614390245E11     -0.21291146874233677     -1.7169827590453133      0.034780206108695325
-0.0197419824263967       -0.05250125564655862     0.06383376331688         7.736425286624995E11     -0.1462612398648487      -1.7280528518842215      0.009191986480952551
-0.019741982426396697     -0.04939489327852801     0.06383376331687998      7.94891452423945E11      -0.32119647375765803     -1.7282676698392034      0.07722826666295513
-0.02248663292356711      -0.062360830919639364    0.0591766222803309       8.099683684930647E11     0.3754760548402677       -1.6781369115253888      -0.19841303653319173
-0.021755514520240153     -0.06426049903834471     0.060425487055779034     6.483374317717616E11     0.47784380219589173      -1.6900604089668536      -0.24746857576671155
-0.02302275315468914      -0.06432820975907014     0.0582569524632358       7.29158812692342E11      0.4647413497085509       -1.6653911215561235      -0.24137796607770146
-0.0222935982557361       -0.06622895269834711     0.05950694851336455      4.981606967286063E11     0.5655383025207374       -1.6786797760365966      -0.29385693355805753
-0.023557448480910206     -0.06629558859850092     0.057336417164637214     5.543319737407933E11     0.5480494838070373       -1.6521158532133096      -0.28661159065319247
-0.0210217762375616       -0.06616016715705005     0.061672730564108824     4.392957456898767E11     0.5807160974635273       -1.7000160463288148      -0.3004735682900863
-0.024398068742739133     -0.06343367877647235     0.05588245062065203      8.203592562424352E11     0.4034160127138829       -1.6343023000800638      -0.21329948369288976
-0.025216671741357926     -0.06637295842436115     0.05445855008047291      5.821685874847935E11     0.5207810294503509       -1.6107747594140085      -0.2786463659657564
-0.026050254555248276     -0.06349583570295415     0.05300035599004049      8.345579274512196E11     0.38333055690720685      -1.5903653591750182      -0.2067491339018462
-0.025235122770220594     -0.060571768954443765    0.05442636205744937      9.741723103924756E11     0.26254185418951864      -1.6146881378141709      -0.14893188224739887
-0.026880271134791165     -0.06061871298154715     0.051540039880390597     9.913801597859601E11     0.24963939693285306      -1.568155349803381       -0.1437964073527478
-0.0260686105633546       -0.0577098591324152      0.05296815147502925      1.1149495277331616E12    0.12542700823394462      -1.5932733664156322      -0.09350878631671987
-0.026861952849655736     -0.06641990245146451     0.05157235768119882      5.905688436319064E11     0.4914488763224901       -1.5650835215855938      -0.27077979960924453
-0.027688498215607517     -0.0635275668306791      0.05010993604431918      8.474545488210732E11     0.36118140232935664      -1.542078274240859       -0.2002974424417267
-0.02849329180580365      -0.06643642067981104     0.04867783996681495      6.230914284102863E11     0.46005302442345514      -1.5150421397280658      -0.2630118915836566
-0.023331761865893797     -0.0594989210976108      0.05772536633664877      9.658874766295833E11     0.22579185702564747      -1.662133065412168       -0.13411788270376637
-0.023865627756766948     -0.06146629993704158     0.05680434121940215      8.928299292716102E11     0.31758251525466363      -1.6484824219328902      -0.17257433568283742
-0.02470493612449729      -0.05860439011501299     0.05534960795635101      1.0346856604044348E12    0.17418299336956647      -1.6297731131770101      -0.11271521080278524
-0.023612066173036007     -0.05579061173870736     0.05724220012422757      1.0455357399889626E12    0.039629533809116387     -1.658051380596138       -0.0597996931345894
-0.023471962979251994     -0.05764476641815909     0.0574838131428437       9.949797421132412E11     0.1327946889055972       -1.660295692880236       -0.096272418969331
-0.02484417274601346      -0.05675023543556128     0.05510747088674568      1.0661409853122421E12    0.08499094315882785      -1.6272073941624774      -0.07709356439977275
-0.02308484021926819      -0.052313802752662834    0.05815023316026935      1.02747733589042E12      -0.13841469351630545     -1.6709108458850217      0.007888313074233662
-0.022214868526023657     -0.05050177116488769     0.059641550589873        9.586834271074235E11     -0.2383825064319627      -1.6890616021950724      0.045841041313948186
-0.021341166036256003     -0.04868973957711252     0.061130564046611185     8.948879736209463E11     -0.3431222397154518      -1.704343154591483       0.08662335037988088
-0.023794868429390364     -0.0497966174634722      0.056926606150665006     1.0353343127693036E12    -0.25889235217763973     -1.6535598176879003      0.057111436603677575
-0.02292796371905336      -0.047984585875697046    0.05841979566053851      9.515498657636953E11     -0.36008681372929674     -1.672838011686832       0.09622799418128314
-0.024502375474788753     -0.04727943217428155     0.0557014581586619       1.0156054991734015E12    -0.3720901957991927      -1.63375224112525        0.10604219806716193
-0.024320218469899176     -0.05327342644951675     0.05601745181372449      1.0510316123724468E12    -0.0844068415248074      -1.6411243340888135      -0.01118636058785635
-0.02502584960203856      -0.0507562411603261      0.05479118252082262      1.0529574716001396E12    -0.20116340181894984     -1.6217407392159595      0.03713460989291715
-0.025547927964893847     -0.054233050146370664    0.05388008029294508      1.070730331039219E12     -0.035324333807904056    -1.6082477809794204      -0.029382384901710117
-0.019741982426393367     -0.04546470473413347     0.06383376331687665      6.041318093623401E11     -0.536748293252695       -1.7255419952120743      0.16871509142960628
-0.021341166036255348     -0.044759551032718       0.06113056404660931      6.966626798807856E11     -0.5471086502126985      -1.7007250075411542      0.17770361587673025
-0.01974198242639003      -0.04153451618973893     0.06383376331687332      4.332998561170591E11     -0.7394925984276662      -1.7218023281018227      0.2729468301421356
-0.02134116603625469      -0.04082936248832346     0.061130564046607425     5.1775129012587E11       -0.7382875463898798      -1.696092868007703       0.28152879531945796
-0.019741982426386702     -0.0376043276453444      0.06383376331687         3.4554374358698694E11    -0.9294293892825722      -1.717048668508449       0.3899234828005433
-0.022927963719055377     -0.044054397331302515    0.058419795660538065     7.251309943283259E11     -0.5525078152287533      -1.6683273922133033      0.18690170040833082
-0.03402589848881872      -0.06632962429826178     0.03860622638981785      5.1822682912570807E11    0.35569368410355007      -1.3271429312961478      -0.2443643664041781
-0.032200314321971416     -0.06631406738501108     0.041974364551011244     5.49718900487801E11      0.38578769200807583      -1.3916410896887115      -0.2484233488658846
-0.03329710056009055      -0.06320158445529642     0.03995627316511136      7.270490578510986E11     0.27147755585710015      -1.3543430651704007      -0.17904024029575022
-0.0314640676310715       -0.06321160539559595     0.04332001691669889      7.723490685044703E11     0.2948956645585851       -1.4183869211572893      -0.1826595158927657
-0.030356112094299722     -0.06634966617886082     0.045331569076676945     5.89450814513996E11      0.42057413878137745      -1.4542741591660175      -0.2546391905923774
-0.029612416641228056     -0.06327278204299593     0.046672827032758706     8.145635331526079E11     0.3230062121288461       -1.4805656882289195      -0.18843565075456747
-0.032565264274899766     -0.060073544612331053    0.041304659889689094     8.670919746889666E11     0.17711381303073537      -1.3809888745864785      -0.11992118486260425
-0.030724782583708976     -0.06010914340618083     0.04466400923167074      9.158062949169675E11     0.19385602252917966      -1.4445784281676914      -0.12310075359492868
-0.031830389633246386     -0.0569455047693657      0.04265138656355106      9.981597701512787E11     0.07260245562445584      -1.4070803595443813      -0.06700720010474027
-0.028812440437810467     -0.060363928193863985    0.048107676527896756     9.584238411416165E11     0.22126488371563577      -1.507819671711225       -0.13273166015867258
-0.028009030743772655     -0.057455074344732036    0.04954053378160201      1.0889839817767908E12    0.10685317200002035      -1.5341145962432587      -0.08324108361572863
-0.029929623767069927     -0.05720028955704888     0.04610161214444262      1.0499371161643223E12    0.08924498779685747      -1.4720502606195085      -0.0744072215450688
-0.031143366534992507     -0.05375681043139397     0.04390392191010266      9.75415229511634E11      -0.04124580723350912     -1.4306154925902195      -0.013712556150006166
-0.029235392881482053     -0.05401159521907715     0.04735007773875441      1.0208108596727448E12    -0.03506521013357589     -1.494971289461108       -0.020211922876718743
-0.02730759207085079      -0.0542663800067603      0.050784929623673994     1.0580658786417815E12    -0.02791896100288136     -1.5564215208806194      -0.02814513023376266
-0.030453723256724335     -0.050568116093422225    0.04515499213951263      9.768107714245869E11     -0.16174095495379887     -1.4536628755473242      0.041838845946622794
-0.028538541815879892     -0.0508229008811054      0.04859707821592458      1.0231430603459246E12    -0.16602229292633405     -1.5174045682139738      0.03624013393352615
-0.029761459798441886     -0.04737942175545048     0.04640459725178099      9.968484794518947E11     -0.28888298753641345     -1.4762225084156952      0.0996470061851466
-0.02627152770512612      -0.047312762034671205    0.05261187337351411      1.01936810225027E12      -0.3424672656427975      -1.5847159799804942      0.10232605718418138
-0.02679025777018572      -0.050789571020715754    0.05169881479361319      1.035594407052085E12     -0.18264925033824092     -1.5713094785941815      0.035895166785400605
-0.028024555813010495     -0.04734609189506084     0.049512919737887136     1.0094829577705815E12    -0.3147315295552044      -1.5322060690773092      0.10019432655684292
-0.026207795522914384     -0.03758166108350667     0.05272434496234215      5.72272722452338E11      -0.7385565577867762      -1.5780534884735902      0.3519993228659249
-0.025640878961918474     -0.04081425144709831     0.05371763954747478      6.376183373850195E11     -0.6300088908166468      -1.5982443629191605      0.2574046464264157
-0.02407613111516751      -0.0375817533779783      0.05644124481019075      5.217365342788272E11     -0.8066947428939828      -1.635686063477585       0.3628626181536895
-0.023502825811301097     -0.040818075354640417    0.05743098199521077      5.558845890677164E11     -0.686405172574234       -1.652819039626286       0.2685776751943827
-0.02507240561254326      -0.044046841810689935    0.05471001061291469      7.869102295955837E11     -0.5078534368207857      -1.6168106138030471      0.17541893816016133
-0.021920860082991614     -0.03758930889859087     0.06014438426170002      4.5283766576925604E11    -0.870319020059248       -1.682017790155871       0.3755040047985622
-0.02683639054376656      -0.04408017167107959     0.05161739568370519      8.070604766774615E11     -0.469557466499802       -1.5661670370655891      0.17041324277966072
-0.027399696594027703     -0.04084758130748794     0.05062199447420355      6.384907827968035E11     -0.5830398803310746      -1.545993470589          0.2511093965483949
-0.028584251352536876     -0.044113501531469215    0.0485154119040165       7.944734809222676E11     -0.43314869024762037     -1.5120498105697018      0.16699195765480218
-0.03924196273861451      -0.06615968373954978     0.028723965609407893     4.165267817980532E11     0.2806726682693457       -1.137138847959692       -0.22602978493484696
-0.037521489201596474     -0.06624086503730041     0.03202726493033518      4.3512816680309106E11    0.3036617853346785       -1.20117899222894        -0.23365540143283486
-0.03869428797740436      -0.06343117123514158     0.029780299168901087     5.917570929320903E11     0.2205512681121327       -1.1575695910824457      -0.1723313556060647
-0.03696795841211015      -0.0635000853104689      0.03308072673568971      6.209021463733678E11     0.23863935311398585      -1.2218107588532428      -0.17808622517905467
-0.03578280111833121      -0.0662975118902044      0.0353213518571385       4.690647227236987E11     0.32866879061274656      -1.2645136866744249      -0.2397669285892785
-0.035223414300568696     -0.06354446494094958     0.036371941908354355     6.5692500604901E11       0.2587453263285743       -1.2853464768002771      -0.18232700541050045
-0.038144760413786664     -0.06070265873073338     0.030835681634532784     7.07452708295956E11      0.15508607682603248      -1.1780377842354608      -0.12292440942060542
-0.03641257482021627      -0.0607593055836374      0.03413323744718275      7.366485635474631E11     0.168273129764406        -1.2424799755078069      -0.1268085320685975
-0.03759338004776142      -0.0579741462263252      0.03189011300630299      8.188823811297155E11     0.08427709441104515      -1.1985434274187374      -0.0778089463784692
-0.0344996550435208       -0.06041642509798423     0.037724697739207044     7.977562245701809E11     0.1732775476377577       -1.3123393499168545      -0.12327074661472666
-0.033772857430010295     -0.057288385255018864    0.03907579351934394      9.302540025482292E11     0.07766215436702623      -1.3387778985752563      -0.07041955849423479
-0.03569385423484865      -0.05763126574067204     0.035488702333594586     8.787287196111948E11     0.0815537006292227       -1.2692655878667085      -0.07402014058547776
-0.040953886671117795     -0.05981868474623094     0.025392535792492413     7.296499194063887E11     0.11611251069163235      -1.070791805995282       -0.10236050144653382
-0.04179158406852601      -0.06183587385864505     0.023745734582363634     6.254928761254568E11     0.15773589692786752      -1.0392386162081693      -0.13355587978571334
-0.040385293692954266     -0.06193235107733724     0.026504043062211505     6.404604446078179E11     0.16993361720441497      -1.0930839157675052      -0.1395222936813794
-0.04122616798599838      -0.0639611566446333      0.024858480330219562     5.436929323333052E11     0.20970864034978653      -1.0614581888214027      -0.17400767928048605
-0.04262477300543674      -0.06385306297105914     0.02209672244057124      5.3854975105564795E11    0.19543363919659631      -1.0080854438310172      -0.16584996494935333
-0.042062533818544995     -0.06598996221192933     0.023210706666563996     3.844387529820123E11     0.24555801952765172      -1.0302324792852608      -0.20959177170405313
-0.04345345348184998      -0.06587025208347326     0.020445499367115223     3.930648275499653E11     0.22920573749781875      -0.9773322888638257      -0.19924275693745377
-0.039814652382119835     -0.06404601740844351     0.027614519667849998     5.597183857840347E11     0.22478700306365276      -1.1151995964223085      -0.18074538817748376
-0.04065870357079985      -0.06608643943062154     0.025970195413994895     3.955863233577815E11     0.2627136631181607       -1.0835013323172162      -0.2185207810365175
-0.039841515189931266     -0.05920383857292903     0.027562356852789797     7.597809745118196E11     0.10675495181647272      -1.11373023067803        -0.09458395180916566
-0.03926892575000327      -0.06131750490403533     0.028671843342885747     6.752463832500654E11     0.16313697029107513      -1.1357381254389478      -0.13142700257698578
-0.038721346315479147     -0.0585889923996271      0.029728215924059987     7.801892228926454E11     0.09614314638961032      -1.156314104485848       -0.08640010011981081
-0.04642909983904214      -0.06556190991369742     0.01442188033959485      3.011751787494563E11     0.19570758640983751      -0.8698809408582039      -0.17575478181551563
-0.04544389660114455      -0.06566766372038435     0.016432889814827538     3.298663939044048E11     0.2065247693583282       -0.9044036469685595      -0.1837155265827318
-0.046342449818727725     -0.06435224945948712     0.014599425351115143     4.191054032095565E11     0.17480386139714518      -0.8720143392266387      -0.15534877133945837
-0.04535665204805841      -0.0644565167244599      0.016610169361211385     4.4344820019696704E11    0.18476248751460198      -0.9067173287562881      -0.16266775856383406
-0.04445201448208049      -0.06577044444364295     0.018440762824000995     3.484243752361082E11     0.2176908197209886       -0.9402207629704333      -0.19154485162337784
-0.04436417539622263      -0.06455781090600435     0.018617776905248393     4.8046895319900366E11    0.19506998104622847      -0.9427147281774554      -0.16985532606163958
-0.04625574785123118      -0.06314258900527679     0.014776946184911849     4.8189188772020105E11    0.15346736895693436      -0.8740877859245592      -0.13619341732087056
-0.04526935554779015      -0.06324536972853545     0.016787424729871644     5.077490354797201E11     0.16256743824335723      -0.908971058873502       -0.14287064700240576