% Model:              wentai_test_m10.mph
% Version:            COMSOL 5.5.0.292
% Date:               Jan 3 2022, 17:10
% Dimension:          3
% Nodes:              22177
% Expressions:        4
% Description:        表面
% X                       Y                        Z                        Color                    DeformX                  DeformY                  DeformZ
-0.04851473881663425      -0.06529392956856216     0.010108330297943599     8.865127170356401E10     0.1027409211483051       -0.4743002384505867      -0.0948349898389402
-0.048514721764346014     -0.06353093245825568     0.010108366803403778     1.3678150570543484E11    0.08532189876501439      -0.4735208141498442      -0.07820427070894406
-0.0487596548365826       -0.06529260895154608     0.009293285712236105     7.629341863016306E10     0.10128490459773298      -0.4672411189705974      -0.09434536310654132
-0.04875965131906641      -0.06353012398785107     0.009293312779510773     1.2224270954150568E11    0.08403121486592031      -0.4666335802347634      -0.07777526869099675
-0.04851471445622633      -0.061767935347949186    0.010108382448604845     1.7384850427892908E11    0.06780183529340378      -0.4727439719157204      -0.06311011597888239
-0.04875965754571876      -0.061767639024156044    0.009293318986526324     1.4983372413605252E11    0.06667648404578772      -0.466028623565548       -0.06274173867538659
-0.04851471689227521      -0.060004938237642705    0.0101083772335468       2.1336526094599484E11    0.05018073073347324      -0.47196971174821517     -0.049552525648755126
-0.04875457941268432      -0.0652923126277529      0.008479800673698218     7.239683087000125E10     0.09997842062786186      -0.45788758492443016     -0.09415292887013368
-0.04875458942994017      -0.06353033981066938     0.008479818302787373     1.1238994772500352E11    0.08289006354752723      -0.45745193175350457     -0.07764345916904063
-0.0484995125449394       -0.06529304059718265     0.007667875182329935     8.213650458732825E10     0.09882146923869173      -0.446239636312085       -0.09425768712971726
-0.048499512669747995     -0.05999515833337221     0.007667875434681681     1.9946440248149728E11    0.04777337570165174      -0.4459539949730358      -0.049217365845794954
-0.04849951262814513      -0.061761119087975706    0.007667875350564432     1.5606409711741245E11    0.0646957960853783       -0.4459399694067129      -0.06259866551440076
-0.04875458945849632      -0.05999841830146241     0.008479818490634556     1.852217029614171E11     0.04849601694824736      -0.4569967047215129      -0.04920023743469637
-0.048754589444218246     -0.06176437905606591     0.008479818396710965     1.4047981244674963E11    0.06564623485024391      -0.45716969856450584     -0.06260577792218434
-0.04849951258654226      -0.06352707984257917     0.007667875266447183     1.2132291203385126E11    0.08171182726439163      -0.44603518318639596     -0.07761210594237485
-0.04875965753267205      -0.060001678269552564    0.009293319090256262     1.872562782603114E11     0.0492984686255212       -0.46566861031323925     -0.04931195736901643
-0.04851471689227521      -0.05725706781259607     0.0101083772335468       2.257879403367257E11     0.02270692424989965      -0.4710260003073935      -0.031099600130826143
-0.048759657532672064     -0.057253807844505934    0.009293319090256238     1.934425280175042E11     0.022324629676438473     -0.46501161572971944     -0.03101656603730377
-0.048514716892275205     -0.054509197387549405    0.0101083772335468       2.333870142411391E11     -0.004768056626312209    -0.4704611888434128      -0.013612759040995456
-0.04875965753267205      -0.05450593741945927     0.00929331909025621      1.9781760150284802E11    -0.004650383665282535    -0.46473352112304034     -0.013687259133689404
-0.048514716892275205     -0.05176132696250277     0.0101083772335468       2.4249401174940503E11    -0.032244211895162335    -0.470275277356273       0.002907997620736926
-0.048754589458496325     -0.05725054787641576     0.008479818490634504     1.9435397675137988E11    0.02202214553365549      -0.45662642699529454     -0.031062380289200036
-0.048499512669748        -0.0517216157071306      0.00766787543468168      2.526144762421519E11     -0.0305625495977876      -0.4459536665697113      0.0033496985697453077
-0.048499512669748        -0.054479463249211144    0.007667875434681681     2.2844729754169586E11    -0.004496057851077678    -0.4458358934639228      -0.013428302408837564
-0.048754589458496325     -0.051734852792254676    0.00847981849063452      2.0420073264260095E11    -0.03110645689420475     -0.4564548383452127      0.0029767902633535646
-0.048754589458496325     -0.05449270033433522     0.00847981849063451      1.9962585950574442E11    -0.004564897356826225    -0.45648169138347205     -0.013670618099624623
-0.048499512669748        -0.05723731079129168     0.00766787543468168      2.17305573816812E11      0.02161591724873543      -0.44583600293169756     -0.030950657214017647
-0.04875965753267206      -0.05174808987737872     0.009293319090256226     2.0414690506406442E11    -0.03166701099332966     -0.46456204194073325     0.002829556613684104
-0.048499512669748        -0.04344538320562743     0.007667875434681681     1.3052272226139928E11    -0.10879566302535952     -0.44481721325829154     0.06379208120945991
-0.048499512669748        -0.046204127372795153    0.007667875434681681     1.7725634009157407E11    -0.08263634633762236     -0.44507550816346564     0.041063074466172106
-0.048754589458496304     -0.04346860144873633     0.008479818490632321     1.1655131188364462E11    -0.11035824168245265     -0.4563283315875354      0.06322248429321148
-0.048754589458496325     -0.04622734561590407     0.008479818490632353     1.5232682529644794E11    -0.08387560432180853     -0.4562689932589239      0.0405146523193274
-0.048499512669748        -0.04896287153996288     0.00766787543468168      2.1404426694492426E11    -0.056558641861765055    -0.4454543259339388      0.02091561358626724
-0.04875458945849631      -0.04898608978307179     0.00847981849063238      1.7924955504513678E11    -0.05747457917304424     -0.45633017779561164     0.020388366208826232
-0.048759657532672036     -0.043491819691845235    0.009293319090254028     1.1540323016222014E11    -0.11206878350394774     -0.46544200522392865     0.06313047662840957
-0.048759657532672064     -0.04625056385901299     0.00929331909025409      1.5248228783997864E11    -0.08526282547039665     -0.46506503366153173     0.04044381942392918
-0.048514716892275205     -0.04351503793495414     0.0101083772335468       1.404915481340192E11     -0.11392728848984479     -0.4721582341674715      0.06351605821505414
-0.048514716892275205     -0.0490125639533199      0.0101083772335468       2.0875564159024796E11    -0.05965095605058843     -0.47069559309185194     0.02079864096973431
-0.048759657532672064     -0.04899932686819586     0.009293319090255159     1.7476315964039267E11    -0.05855444421046245     -0.46470986953372223     0.02048066626091913
-0.0485147168922752       -0.04626380094413702     0.0101083772335468       1.7746743614509955E11    -0.0868786482488159      -0.47132324536225134     0.04100132783450672
-0.048499512669738        -0.0381431649117068      0.00766787543467168      5.216867723410282E10     -0.1593401700900592      -0.4447734359778492      0.11962766132479528
-0.04849951266974134      -0.039910571009680346    0.007667875434675014     4.928095103474411E10     -0.1423669516207107      -0.44464052980182867     0.09941587295118798
-0.04875458338242887      -0.03819984180662221     0.008478867716049884     3.9499345569289795E10    -0.16057407902638496     -0.45674175385193017     0.11883695219953319
-0.048754586420463146     -0.03995200176076689     0.008479343103340566     4.0600702207150276E10    -0.1438284967553588      -0.4565411855666704      0.09864784438750956
-0.04849951266974467      -0.041677977107653884    0.0076678754346783465    8.443855746701964E10     -0.12551878259914412     -0.44465512222864273     0.08080401291274283
-0.04875458945849741      -0.04170416171491155     0.008479818490631246     7.826572360456097E10     -0.1272079639321146      -0.4564881158842453      0.0800586649106481
-0.0487596514566046       -0.03822602641387987     0.009292368315671588     3.0908728030013985E10    -0.16236553178102056     -0.4664517277830603      0.11888641553384806
-0.04875965753266982      -0.03996294022419568     0.00929331909024962      4.266864255430375E10     -0.1458475857083168      -0.46618349738856135     0.0987199882834081
-0.048514716892265206     -0.0382217187334798      0.0101083772335368       4.233260234490232E10     -0.16471452835396597     -0.47390335777123976     0.11977605132773984
-0.04851471689227187      -0.04175059820112936     0.010108377233543466     8.887001286267914E10     -0.13106789262801177     -0.47283225334740747     0.08061400575953456
-0.048759657532670926     -0.04172737995802046     0.009293319090251825     7.334000311031947E10     -0.12906394669786223     -0.4658589069622516      0.0800975407093681
-0.048514716892268536     -0.03998615846730458     0.01010837723354013      5.427433897698224E10     -0.14799697258271882     -0.4734139612153302      0.09936733679709647
-0.02194908778754411      -0.0603934520802086      0.060095426615922515     5.181493128502209E11     0.16485505835396386      -0.9943254253888257      -0.09277458942697094
-0.021216005879843233     -0.0622920453783423      0.06134316011669001      4.253472394914957E11     0.22599537711949927      -1.0005362138609684      -0.11961700765497964
-0.021216005879840554     -0.059833628181012344    0.06134316011669157      4.878635038321273E11     0.15045986638522696      -1.001994707954662       -0.08707048365906767
-0.020480304092791092     -0.061732221479146046    0.06258927235034163      4.0222393889153564E11    0.21243076586320897      -1.0069877301131125      -0.11387203043981158
-0.02048030409279076      -0.064190638676476       0.06258927235033918      3.3732262945777075E11    0.2874324887744646       -1.0055894375804308      -0.1487826337006009
-0.019741982426390033     -0.06363081477727973     0.06383376331687333      3.017588731014459E11     0.2746984582306209       -1.0108231875188824      -0.14299678503816804
-0.019741982426386702     -0.0660892319746097      0.06383376331687         1.972829070573347E11     0.3491663933188598       -1.0094850965472129      -0.1802714675638348
-0.020480304092791418     -0.059273804281816084    0.06258927235034405      4.692676458141294E11     0.13511656555413165      -1.0086163687907006      -0.08109504042374605
-0.01974198242639337      -0.061172397579949786    0.06383376331687668      3.699728858811007E11     0.19791804574456023      -1.012391624635459       -0.10785571575722516
-0.0197419824263967       -0.05871398038261981     0.06383376331688         4.3171212819900977E11    0.11882515586067798      -1.0141904078969424      -0.0748482597210061
-0.022090253392744327     -0.05853929740075689     0.05985445729791768      5.43012255747739E11      0.10791253715882448      -0.9936730571244978      -0.06920442409359612
-0.021357677983842128     -0.057979473501560644    0.06110250223915622      5.181005348056812E11     0.09211734679708226      -1.0016184368584267      -0.06329878880660854
-0.02062248269559434      -0.057419649602364356    0.06234892591327818      5.015569843210242E11     0.07537404757298162      -1.008516194862558       -0.0571218160522026
-0.022231321078370364     -0.056685142721305176    0.0596134281551018       5.724987092149504E11     0.05087120009519462      -0.9927813125353604      -0.04644175164241375
-0.021499252168269516     -0.056125318822108916    0.06086178453680983      5.497971282291564E11     0.033676011340447065     -1.001002789437382       -0.040334586836341876
-0.022372290844422226     -0.05483098804185345     0.0593723391874749       6.012220353760924E11     -0.006268952836925745    -0.9916501916214135      -0.02448657207342388
-0.021499252168270165     -0.0530189564540783      0.06086178453680871      5.585181569871174E11     -0.06435199065012219     -1.0016639084575745      -0.0028460433071005858
-0.020622482695594663     -0.05431328723433376     0.062348925913277634     5.1028207689699255E11    -0.02477650006765315     -1.0095961170241134      -0.018295997638023427
-0.0197419824263967       -0.05560761801458921     0.06383376331687998      4.46063550756055E11      0.016552062569977665     -1.01568913319986        -0.03468516642188901
-0.02062248269559499      -0.051206924866303155    0.06234892591327707      5.2091644791804504E11    -0.12524204044446294     -1.0099898582856695      0.020458944768808243
-0.0197419824263967       -0.05250125564655862     0.06383376331688         4.550838404007832E11     -0.08603602345689765     -1.016501677602779       0.005407050869880553
-0.019741982426396697     -0.04939489327852801     0.06383376331687998      4.675832073196673E11     -0.188939102219948       -1.016628041105699       0.0454283921543026
-0.02248663292356711      -0.062360830919639364    0.0591766222803309       4.764519814778976E11     0.22086826755434877      -0.9871393597441558      -0.11671355090609194
-0.021755514520240153     -0.06426049903834471     0.060425487055779034     3.8137495987479614E11    0.281084589529604        -0.994153181768676       -0.1455697504558209
-0.02302275315468914      -0.06432820975907014     0.0582569524632358       4.289169486526845E11     0.2733772645371205       -0.9796418362326847      -0.14198703887405767
-0.0222935982557361       -0.06622895269834711     0.05950694851336455      2.930357039648419E11     0.3326695897220955       -0.9874586918095826      -0.17285701974550693
-0.023557448480910206     -0.06629558859850092     0.057336417164637214     3.260776316196973E11     0.32238204930227926      -0.971832854854413       -0.1685950533308682
-0.0210217762375616       -0.06616016715705005     0.061672730564108824     2.5840926217655573E11    0.341597704394289        -1.0000094390405159      -0.17674915782316247
-0.024398068742739133     -0.06343367877647235     0.05588245062065203      4.825642683893252E11     0.2373035368925852       -0.9613542941875811      -0.12547028452975523
-0.025216671741357926     -0.06637295842436115     0.05445855008047291      3.424521102928766E11     0.3063417820335897       -0.9475145643837486      -0.1639096270441217
-0.026050254555248276     -0.06349583570295415     0.05300035599004049      4.909164279240831E11     0.22548856288870825      -0.9355090348311396      -0.12161713759382994
-0.025235122770220594     -0.060571768954443765    0.05442636205744937      5.730425355387983E11     0.15443638481753125      -0.9498165516779852      -0.08760698956100317
-0.026880271134791165     -0.06061871298154715     0.051540039880390597     5.831647998881724E11     0.14684670407846684      -0.9224443234357662      -0.08458612197589908
-0.0260686105633546       -0.0577098591324152      0.05296815147502925      6.558526633884843E11     0.0737805930771175       -0.9372196273256251      -0.05500516842461207
-0.026861952849655736     -0.06641990245146451     0.05157235768119882      3.473934374382555E11     0.28908757431122634      -0.9206373656605911      -0.1592822350696596
-0.027688498215607517     -0.0635275668306791      0.05010993604431918      4.985026757888234E11     0.21245964843115736      -0.9071048672222046      -0.11782202497018904
-0.02849329180580365      -0.06643642067981104     0.04867783996681495      3.665243696610634E11     0.2706194261351889       -0.8912012586849402      -0.15471287740748188
-0.023331761865893797     -0.0594989210976108      0.05772536633664877      5.681691039135076E11     0.13281873942607475      -0.9777253326185436      -0.07889287218210483
-0.023865627756766948     -0.06146629993704158     0.05680434121940215      5.2519407605472003E11    0.18681324426813653      -0.9696955423364628      -0.10151431511150764
-0.02470493612449729      -0.05860439011501299     0.05534960795635101      6.086386237820967E11     0.1024605843337926       -0.9586900665974767      -0.06630306518131852
-0.023612066173036007     -0.05579061173870736     0.05724220012422757      6.150210235379683E11     0.02331149047249155      -0.9753243415502291      -0.03517629008163262
-0.023471962979251994     -0.05764476641815909     0.0574838131428437       5.852822012573319E11     0.0781145228835284       -0.9766445252467912      -0.056630834690772486
-0.02484417274601346      -0.05675023543556128     0.05510747088674568      6.271417560813291E11     0.0499946724438393       -0.9571808201182995      -0.04534915553202868
-0.02308484021926819      -0.052313802752662834    0.05815023316026935      6.04398432891707E11      -0.08142040795696001     -0.9828887328967635      0.004640184159764908
-0.022214868526023657     -0.05050177116488769     0.059641550589873        5.639314277242206E11     -0.1402250037913529      -0.993565648373461       0.026965318418976394
-0.021341166036256003     -0.04868973957711252     0.061130564046611185     5.264046903783411E11     -0.2018366116068901      -1.0025547968420923      0.05095491198777341
-0.023794868429390364     -0.0497966174634722      0.056926606150665006     6.090201839972595E11     -0.15228961893583612     -0.9726822457217629      0.03359496270709682
-0.02292796371905336      -0.047984585875697046    0.05841979566053851      5.597352151692106E11     -0.2118157727914255      -0.9840223598389967      0.05660470245919649
-0.024502375474788753     -0.04727943217428155     0.0557014581586619       5.974149995290514E11     -0.21887658577355415     -0.9610307300964119      0.06237776356857185
-0.024320218469899176     -0.05327342644951675     0.05601745181372449      6.182538896461653E11     -0.04965108325501961     -0.9653672553692336      -0.006580212112369421
-0.02502584960203856      -0.0507562411603261      0.05479118252082262      6.193867480156956E11     -0.11833141284137262     -0.9539651407378875      0.021843888171036906
-0.025547927964893847     -0.054233050146370664    0.05388008029294508      6.298413712151406E11     -0.020779019891148744    -0.9460281064809587      -0.017283755826691068
-0.019741982426393367     -0.04546470473413347     0.06383376331687665      3.5537165257501465E11    -0.31573429016138055     -1.0150247030896855      0.09924417143000659
-0.021341166036255348     -0.044759551032718       0.06113056404660931      4.0980157641099585E11    -0.3218286177847432      -1.0004264750477092      0.10453153875182615
-0.01974198242639003      -0.04153451618973893     0.06383376331687332      2.5488226831095587E11    -0.4349956461496501      -1.0128248989071142      0.16055695890935368
-0.02134116603625469      -0.04082936248832346     0.061130564046607425     3.045595824354125E11     -0.43428679200943343     -0.9977016870867682      0.165605173719522
-0.019741982426386702     -0.0376043276453444      0.06383376331687         2.0326102564547006E11    -0.5467231701847569      -1.010028628557986       0.22936675459234387
-0.022927963719055377     -0.044054397331302515    0.058419795660538065     4.2654764373370386E11    -0.3250045972056992      -0.9813690542662435      0.10994217671159798
-0.03402589848881872      -0.06632962429826178     0.03860622638981785      3.048393112569901E11     0.20923157888758545      -0.7806723125460159      -0.1437437449486704
-0.032200314321971416     -0.06631406738501108     0.041974364551011244     3.233640591174208E11     0.22693393647865184      -0.8186124057189879      -0.14613138169094106
-0.03329710056009055      -0.06320158445529642     0.03995627316511136      4.2767591639311804E11    0.15969267991773975      -0.7966723912959226      -0.10531778841341907
-0.0314640676310715       -0.06321160539559595     0.04332001691669889      4.5432298148388654E11    0.17346803797749136      -0.8343452477596617      -0.10744677405880489
-0.030356112094299722     -0.06634966617886082     0.045331569076676945     3.467357732509266E11     0.24739655222785295      -0.8554553877652957      -0.14978775917721152
-0.029612416641228056     -0.06327278204299593     0.046672827032758706     4.791550195127323E11     0.19000365419537774      -0.870920993096737       -0.11084450044819054
-0.032565264274899766     -0.060073544612331053    0.041304659889689094     5.100541027706063E11     0.10418459590073421      -0.8123463968351282      -0.07054187345195857
-0.030724782583708976     -0.06010914340618083     0.04466400923167074      5.387095852582875E11     0.11403295442917108      -0.8497520165896346      -0.07241220800045957
-0.031830389633246386     -0.0569455047693657      0.04265138656355106      5.87152805985863E11      0.042707326836568915     -0.8276943291636328      -0.03941600006428896
-0.028812440437810467     -0.060363928193863985    0.048107676527896756     5.637787300969437E11     0.1301558139506607       -0.8869527480866627      -0.07807744715573588
-0.028009030743772655     -0.057455074344732036    0.04954053378160201      6.405788128256815E11     0.06285480705728476      -0.9024203507528856      -0.04896534330628409
-0.029929623767069927     -0.05720028955704888     0.04610161214444262      6.176100683472158E11     0.05249705164376858      -0.8659119180322217      -0.04376895385284307
-0.031143366534992507     -0.05375681043139397     0.04390392191010266      5.737736644330845E11     -0.02426223955225424     -0.8415385250732388      -0.008066209501987246
-0.029235392881482053     -0.05401159521907715     0.04735007773875441      6.004769762931726E11     -0.020626594199615968    -0.8793948761746153      -0.01188936640016016
-0.02730759207085079      -0.0542663800067603      0.050784929623673994     6.22391693334279E11      -0.016422918240661166    -0.9155420711280673      -0.01655595896322
-0.030453723256724335     -0.050568116093422225    0.04515499213951263      5.745945714410071E11     -0.09514173821313592     -0.8550958091659323      0.02461108584969484
-0.028538541815879892     -0.0508229008811054      0.04859707821592458      6.018488590424263E11     -0.09766017231505904     -0.8925909225000968      0.02131772584190312
-0.029761459798441886     -0.04737942175545048     0.04640459725178099      5.863814585165392E11     -0.16993116914607612     -0.8683661814417135      0.05861588599075731
-0.02627152770512612      -0.047312762034671205    0.05261187337351411      5.996282954568964E11     -0.20145133273956392     -0.9321858705988835      0.06019179834318117
-0.02679025777018572      -0.050789571020715754    0.05169881479361319      6.091731806343817E11     -0.10744073549913374     -0.9242996933126777      0.021114803990077098
-0.028024555813010495     -0.04734609189506084     0.049512919737887136     5.938135045864753E11     -0.1851361938637379      -0.901297687713984       0.05893783915057631
-0.026207795522914384     -0.03758166108350667     0.05272434496234215      3.366310132184578E11     -0.43444503400653484     -0.928266757947568       0.20705842521813866
-0.025640878961918474     -0.04081425144709831     0.05371763954747478      3.7506961023769855E11    -0.37059346519912095     -0.9401437429158503      0.15141449789951347
-0.02407613111516751      -0.0375817533779783      0.05644124481019075      3.069038437033361E11     -0.4745263193652009      -0.9621682726565364      0.213448598917049
-0.023502825811301097     -0.040818075354640417    0.05743098199521077      3.2699093475519934E11    -0.4037677485872399      -0.972246493920724       0.15798686776327203
-0.02507240561254326      -0.044046841810689935    0.05471001061291469      4.628883703628518E11     -0.2987373157881274      -0.9510650669654652      0.1031876106829912
-0.021920860082991614     -0.03758930889859087     0.06014438426170002      2.6637509751966998E11    -0.5119523647579415      -0.9894222295266756      0.2208847087084507
-0.02683639054376656      -0.04408017167107959     0.05161739568370519      4.747414568821708E11     -0.2762102744218982      -0.9212747277074931      0.10024308398846814
-0.027399696594027703     -0.04084758130748794     0.05062199447420355      3.755828134214114E11     -0.3429646355006527      -0.9094079238974344      0.147711409735858
-0.028584251352536876     -0.044113501531469215    0.0485154119040165       4.6733734173202386E11    -0.2547933472138332      -0.8894410650621498      0.09823056332673091
-0.03924196273861451      -0.06615968373954978     0.028723965609407893     2.4501575400472183E11    0.1651015695728304       -0.668905204698401       -0.13295869702516072
-0.037521489201596474     -0.06624086503730041     0.03202726493033518      2.559577451841855E11     0.17862457961143385      -0.7065758777988578      -0.1374443537888297
-0.03869428797740436      -0.06343117123514158     0.029780299168901087     3.480924076157622E11     0.1297360400676585       -0.6809232888885268      -0.10137138565455453
-0.03696795841211015      -0.0635000853104689      0.03308072673568971      3.652365566991015E11     0.1403760900688383       -0.7187122111075408      -0.10475660305055576
-0.03578280111833121      -0.0662975118902044      0.0353213518571385       2.759204251376664E11     0.19333458271635218      -0.7438315804147293      -0.1410393697633329
-0.035223414300568696     -0.06354446494094958     0.036371941908354355     3.8642647415565967E11    0.152203133136333        -0.7560861628419696      -0.10725117965739125
-0.038144760413786664     -0.06070265873073338     0.030835681634532784     4.1614865194917017E11    0.09122710401600229      -0.6929634025082164      -0.07230847613302972
-0.03641257482021627      -0.0607593055836374      0.03413323744718275      4.3332268445031616E11    0.09898419397975844      -0.7308705738457876      -0.07459325416136323
-0.03759338004776142      -0.0579741462263252      0.03189011300630299      4.816955183236089E11     0.049574761417861796     -0.7050255455574702      -0.04576996846058631
-0.0344996550435208       -0.06041642509798423     0.037724697739207044     4.6926836740568353E11    0.10192796919920857      -0.7719643234991265      -0.07251220389438405
-0.033772857430010295     -0.057288385255018864    0.03907579351934394      5.472082368066387E11     0.045683620214924316     -0.7875164109455821      -0.04142326970516767
-0.03569385423484865      -0.05763126574067204     0.035488702333594586     5.168992468429595E11     0.04797276507535529      -0.7466268164101946      -0.04354125917060014
-0.040953886671117795     -0.05981868474623094     0.025392535792492413     4.292058349556857E11     0.06830147687780218      -0.6298775329536618      -0.060212059677347676
-0.04179158406852601      -0.06183587385864505     0.023745734582363634     3.6793698596542584E11    0.09278582172331559      -0.611316833078455       -0.07856228223022431
-0.040385293692954266     -0.06193235107733724     0.026504043062211505     3.767414380140291E11     0.09996095129782304      -0.6429905387023531      -0.08207193746307347
-0.04122616798599838      -0.0639611566446333      0.024858480330219562     3.198193719688356E11     0.12335802373692226      -0.6243871699100928      -0.1023574584041893
-0.04262477300543674      -0.06385306297105914     0.02209672244057124      3.167939712172512E11     0.11496096423494107      -0.5929914375620514      -0.0975588029151587
-0.042062533818544995     -0.06598996221192933     0.023210706666563996     2.2614044293631174E11    0.14444589384213352      -0.6060191054766355      -0.12328927747736293
-0.04345345348184998      -0.06587025208347326     0.020445499367115223     2.3121460444706705E11    0.1348269044126786       -0.5749013464044513      -0.11720162173215089
-0.039814652382119835     -0.06404601740844351     0.027614519667849998     3.292461092929285E11     0.13222764886283242      -0.6559997626172662      -0.10632081657901113
-0.04065870357079985      -0.06608643943062154     0.025970195413994895     2.3269783727499716E11    0.15453744889551746      -0.6373537249079522      -0.1285416359083662
-0.039841515189931266     -0.05920383857292903     0.027562356852789797     4.469299850181125E11     0.06279703048042061      -0.6551354298264669      -0.05563761871410731
-0.03926892575000327      -0.06131750490403533     0.028671843342885747     3.972037548628996E11     0.09596292370154529      -0.668081250274386       -0.07731000151922499
-0.038721346315479147     -0.0585889923996271      0.029728215924059987     4.589348370071052E11     0.056554791993773806     -0.6801847673610695      -0.050823588308520184
-0.04642909983904214      -0.06556190991369742     0.01442188033959485      1.7716186985715295E11    0.11512210965475489      -0.5116946711055         -0.10338516577776642
-0.04544389660114455      -0.06566766372038435     0.016432889814827538     1.940390552428627E11     0.12148515844807552      -0.5320021452885523      -0.10806795681740225
-0.046342449818727725     -0.06435224945948712     0.014599425351115143     2.465325901295396E11     0.10282580082345104      -0.5129496113222547      -0.09138163020332815
-0.04535665204805841      -0.0644565167244599      0.016610169361211385     2.608518824754573E11     0.1086838161867391       -0.5333631345754816      -0.09568691680599051
-0.04445201448208049      -0.06577044444364295     0.018440762824000995     2.049555148500121E11     0.1280534233673834       -0.5530710370548693      -0.1126734421355304
-0.04436417539622263      -0.06455781090600435     0.018617776905248393     2.826287960066301E11     0.11474704767601442      -0.5545380754119732      -0.09991489768714518
-0.04625574785123118      -0.06314258900527679     0.014776946184911849     2.8346581631317566E11    0.09027492291712978      -0.5141692858504698      -0.08011377489800772
-0.04526935554779015      -0.06324536972853545     0.016787424729871644     2.98675903230937E11      0.09562790485038526      -0.5346888581738716      -0.08404155706369659