% Model:              wentai_test_m41.mph
% Version:            COMSOL 5.5.0.292
% Date:               Jan 3 2022, 17:43
% Dimension:          3
% Nodes:              22177
% Expressions:        4
% Description:        表面
% X                       Y                        Z                        Color                    DeformX                  DeformY                  DeformZ
-0.04851473881663425      -0.06529392956856216     0.010108330297943599     3.634702140831763E11     0.4212377767918026       -1.9446309781624271      -0.3888234584961552
-0.048514721764346014     -0.06353093245825568     0.010108366803403778     5.608041735434863E11     0.34981978500150956      -1.941435338528442       -0.32063751004504637
-0.0487596548365826       -0.06529260895154608     0.009293285712236105     3.128030164684673E11     0.4152681089339054       -1.9156885882867318      -0.38681598889308433
-0.04875965131906641      -0.06353012398785107     0.009293312779510773     5.01195109254981E11      0.34452798101485177      -1.9131976794690633      -0.3188786017712875
-0.04851471445622633      -0.061767935347949186    0.010108382448604845     7.127788677350957E11     0.27798752474898536      -1.9382502853675754      -0.25875147563534573
-0.04875965754571876      -0.061767639024156044    0.009293318986526324     6.143182691222241E11     0.27337358463356676      -1.9107173571245135      -0.25724112869089877
-0.04851471689227521      -0.060004938237642705    0.0101083772335468       8.74797570112934E11      0.20574099603422982      -1.935075818679828       -0.20316535526705312
-0.04875457941268432      -0.0652923126277529      0.008479800673698218     2.9682700664705316E11    0.40991152465707287      -1.8773390986872407      -0.3860270085235816
-0.04875458942994017      -0.06353033981066938     0.008479818302787373     4.60798785795789E11      0.3398492606092584       -1.8755529206858883      -0.3183381827310968
-0.0484995125449394       -0.06529304059718265     0.007667875182329935     3.367596688980234E11     0.4051680239613048       -1.8295825093639526      -0.38645651738764725
-0.048499512669747995     -0.05999515833337221     0.007667875434681681     8.178040503921886E11     0.19587084040433456      -1.828411379873237       -0.20179120007445417
-0.04849951262814513      -0.061761119087975706    0.007667875350564432     6.39862798351904E11      0.2652527639958888       -1.8283538750514154      -0.25665452873030753
-0.04875458945849632      -0.05999841830146241     0.008479818490634556     7.594089823446831E11     0.19883366951507037      -1.873686489854001       -0.2017209735892908
-0.048754589444218246     -0.06176437905606591     0.008479818396710965     5.759672311855583E11     0.2691495629317798       -1.8743957646105818      -0.2566836896025883
-0.04849951258654226      -0.06352707984257917     0.007667875266447183     4.9742393947133655E11    0.3350184918482122       -1.8287442515483208      -0.31820963450137185
-0.04875965753267205      -0.060001678269552564    0.009293319090256262     7.677507410726729E11     0.2021237213917021       -1.9092413027895314      -0.20217902532015714
-0.04851471689227521      -0.05725706781259607     0.0101083772335468       9.257305556282056E11     0.09309838942189225      -1.9312066017711973      -0.12750836062347815
-0.048759657532672064     -0.057253807844505934    0.009293319090256238     7.931143650834988E11     0.09153098167132452      -1.9065476249961575      -0.12716792084023687
-0.048514716892275205     -0.054509197387549405    0.0101083772335468       9.568867586440753E11     -0.019549032200263765    -1.9288908747680213      -0.05581231213617617
-0.04875965753267205      -0.05450593741945927     0.00929331909025621      8.11052166377721E11      -0.01906657305887153     -1.9054074371082383      -0.056117762516589516
-0.048514716892275205     -0.05176132696250277     0.0101083772335468       9.942254484372711E11     -0.13220126883223823     -1.9281286376703008      0.011922790194852833
-0.048754589458496325     -0.05725054787641576     0.008479818490634504     7.968513048929357E11     0.09029079668665274      -1.8721683511758835      -0.1273557592730252
-0.048499512669748        -0.0517216157071306      0.00766787543468168      1.0357193528693722E12    -0.12530645340795785     -1.8284100334189408      0.013733764086364425
-0.048499512669748        -0.054479463249211144    0.007667875434681681     9.366339201708643E11     -0.018433837218298287    -1.8279271636853043      -0.05505603994401945
-0.048754589458496325     -0.051734852792254676    0.00847981849063452      8.372230040579844E11     -0.12753647332495813     -1.8714648377099032      0.012204840029393565
-0.048754589458496325     -0.05449270033433522     0.00847981849063451      8.184660241919135E11     -0.01871607919303834     -1.8715749351670254      -0.05604953427687131
-0.048499512669748        -0.05723731079129168     0.00766787543468168      8.909528528866803E11     0.08862526071913251      -1.8279276125034025      -0.1268976946642923
-0.04875965753267206      -0.05174808987737872     0.009293319090256226     8.370023109857192E11     -0.1298347451330516      -1.9047043724603563      0.011601182065556367
-0.048499512669748        -0.04344538320562743     0.007667875434681681     5.3514316141511884E11    -0.44606221854555755     -1.8237505748403422      0.2615475329748019
-0.048499512669748        -0.046204127372795153    0.007667875434681681     7.267509945698328E11     -0.33880902009754166     -1.82480958395198        0.16835860530265168
-0.048754589458496304     -0.04346860144873633     0.008479818490632321     4.7786037885042194E11    -0.4524687910424411      -1.8709461600027582      0.25921218561720827
-0.048754589458496325     -0.04622734561590407     0.008479818490632353     6.245399838819034E11     -0.3438899778351519      -1.8707028728555266      0.16611007449963314
-0.048499512669748        -0.04896287153996288     0.00766787543468168      8.775814947087417E11     -0.23189043171834176     -1.8263627368115127      0.08575401567317252
-0.04875458945849631      -0.04898608978307179     0.00847981849063238      7.349231758803823E11     -0.23564577469667863     -1.8709537294561898      0.08359230142472898
-0.048759657532672036     -0.043491819691845235    0.009293319090254028     4.731532437908001E11     -0.45948201251349996     -1.908312221921884       0.258834954191395
-0.048759657532672064     -0.04625056385901299     0.00929331909025409      6.25177380309503E11      -0.3495775845469375      -1.906766638515783       0.1658196596283948
-0.048514716892275205     -0.04351503793495414     0.0101083772335468       5.760153475016191E11     -0.4671018829587343      -1.9358487605977202      0.26041583869736185
-0.048514716892275205     -0.0490125639533199      0.0101083772335468       8.558981307472356E11     -0.24456891989908136     -1.929851932186411       0.08527442794515969
-0.048759657532672064     -0.04899932686819586     0.009293319090255159     7.165289547158491E11     -0.24007322135233342     -1.905310465591555       0.08397073163837752
-0.0485147168922752       -0.04626380094413702     0.0101083772335468       7.276164883876604E11     -0.3562024579412467      -1.9324253064955508      0.1681054441126627
-0.048499512669738        -0.0381431649117068      0.00766787543467168      2.1389157671380447E11    -0.6532946975656958      -1.8235710879903564      0.4904734115083955
-0.04849951266974134      -0.039910571009680346    0.007667875434675014     2.020518992953919E11     -0.5837045018228997      -1.8230261726685546      0.4076050791546062
-0.04875458338242887      -0.03819984180662221     0.008478867716049884     1.6194731687464832E11    -0.6583537242070829      -1.872641191287118       0.4872315040935868
-0.048754586420463146     -0.03995200176076689     0.008479343103340566     1.664628790927186E11     -0.5896968368776542      -1.8718188613173548      0.4044561620423277
-0.04849951266974467      -0.041677977107653884    0.0076678754346783465    3.461980857074777E11     -0.5146270088161868      -1.8230860016185495      0.3312964529767416
-0.04875458945849741      -0.04170416171491155     0.008479818490631246     3.20889466863806E11      -0.5215526522843086      -1.8716012756193887      0.32824052616699334
-0.0487596514566046       -0.03822602641387987     0.009292368315671588     1.267257849551998E11     -0.6656986805041105      -1.9124520844153152      0.4874343037642971
-0.04875965753266982      -0.03996294022419568     0.00929331909024962      1.7494143451805423E11    -0.597975101588049       -1.9113523397975913      0.4047519520155682
-0.048514716892265206     -0.0382217187334798      0.0101083772335368       1.7356366965806296E11    -0.6753295664567788      -1.9430037673749487      0.4910818105205263
-0.04851471689227187      -0.04175059820112936     0.010108377233543466     3.6436705283260986E11    -0.5373783599437921      -1.938612239236132       0.3305174236483008
-0.048759657532670926     -0.04172737995802046     0.009293319090251825     3.0069401283147125E11    -0.5291621816269626      -1.9100215190494054      0.32839991694175696
-0.048514716892268536     -0.03998615846730458     0.01010837723354013      2.2252478986310706E11    -0.6067875877764735      -1.940997241495208       0.40740608092268893
-0.02194908778754411      -0.0603934520802086      0.060095426615922515     2.124412183251832E12     0.6759057392779937       -4.0767342451787         -0.3803758168050335
-0.021216005879843233     -0.0622920453783423      0.06134316011669001      1.7439236823774824E12    0.9265810462785563       -4.102198477921326       -0.4904297315669833
-0.021216005879840554     -0.059833628181012344    0.06134316011669157      2.0002403662447764E12    0.6168854521850681       -4.108178303706655       -0.35698898314849364
-0.020480304092791092     -0.061732221479146046    0.06258927235034163      1.6491181498929993E12    0.8709661401076675       -4.128649694561786       -0.466875324976444
-0.02048030409279076      -0.064190638676476       0.06258927235033918      1.3830227811413145E12    1.1784732041262043       -4.122916695176615       -0.6100087983835208
-0.019741982426390033     -0.06363081477727973     0.06383376331687333      1.2372113800428667E12    1.1262636788773523       -4.144375069929579       -0.586286818858982
-0.019741982426386702     -0.0660892319746097      0.06383376331687         8.088599191471475E11     1.4315822128209381       -4.138888896944567       -0.7391130172546463
-0.020480304092791418     -0.059273804281816084    0.06258927235034405      1.9239973483514858E12    0.553977918755506        -4.135327113141287       -0.3324896658751113
-0.01974198242639337      -0.061172397579949786    0.06383376331687668      1.5168888325160225E12    0.8114639876001422       -4.150805662108922       -0.442208434769062
-0.0197419824263967       -0.05871398038261981     0.06383376331688         1.77001972608883E12      0.48718313898930715      -4.158180673482597       -0.3068778649848865
-0.022090253392744327     -0.05853929740075689     0.05985445729791768      2.226350249162129E12     0.4424414023163889       -4.074059535293953       -0.2837381389130917
-0.021357677983842128     -0.057979473501560644    0.06110250223915622      2.1242121932728318E12    0.3776811218105876       -4.106635592211409       -0.25952503422813583
-0.02062248269559434      -0.057419649602364356    0.06234892591327818      2.0563836362680168E12    0.3090335949681495       -4.1349164000355385      -0.23419944592633757
-0.022231321078370364     -0.056685142721305176    0.0596134281551018       2.347244708412666E12     0.2085719202938756       -4.070403382477213       -0.1904111818390356
-0.021499252168269516     -0.056125318822108916    0.06086178453680983      2.2541682263463804E12    0.13807164637519848      -4.104111437784168       -0.16537180612566382
-0.022372290844422226     -0.05483098804185345     0.0593723391874749       2.46501034570725E12      -0.025702706789546205    -4.065765786728482       -0.10039494558286524
-0.021499252168270165     -0.0530189564540783      0.06086178453680871      2.2899244442653496E12    -0.26384316189380685     -4.106822025767128       -0.011668777615399363
-0.020622482695594663     -0.05431328723433376     0.062348925913277634     2.0921565158411543E12    -0.10158365046847015     -4.13934408089857        -0.07501359038634196
-0.0197419824263967       -0.05560761801458921     0.06383376331687998      1.8288605585908545E12    0.06786345638507305      -4.164325447225697       -0.14220918241515978
-0.02062248269559499      -0.051206924866303155    0.06234892591327707      2.135757437040987E12     -0.5134923661237445      -4.140958420070856       0.08388167352339324
-0.0197419824263967       -0.05250125564655862     0.06383376331688         1.8658437461465278E12    -0.35274769643781567     -4.167656879278054       0.022168908524306592
-0.019741982426396697     -0.04939489327852801     0.06383376331687998      1.917091150530075E12     -0.7746503194793591      -4.168174969639668       0.18625640783351258
-0.02248663292356711      -0.062360830919639364    0.0591766222803309       1.9534531245755205E12    0.9055598970650122       -4.047271376028246       -0.47852555889669185
-0.021755514520240153     -0.06426049903834471     0.060425487055779034     1.5636373358969573E12    1.1524468172243727       -4.076028046336486       -0.5968359770800373
-0.02302275315468914      -0.06432820975907014     0.0582569524632358       1.758559489934711E12     1.120846784756021        -4.016531529623603       -0.5821468595940484
-0.0222935982557361       -0.06622895269834711     0.05950694851336455      1.2014463865653433E12    1.3639453180741798       -4.048580637497457       -0.7087137811987898
-0.023557448480910206     -0.06629558859850092     0.057336417164637214     1.3369182899779946E12    1.3217664023510205       -3.984514705964771       -0.6912397188971039
-0.0210217762375616       -0.06616016715705005     0.061672730564108824     1.0594779751980034E12    1.400550588230819        -4.100038701157388       -0.7246715473179706
-0.024398068742739133     -0.06343367877647235     0.05588245062065203      1.9785135009124863E12    0.9729445013840884       -3.9415526072189717      -0.5144281667671653
-0.025216671741357926     -0.06637295842436115     0.05445855008047291      1.4040536525490903E12    1.256001306544224        -3.884809715009123       -0.6720294711191999
-0.026050254555248276     -0.06349583570295415     0.05300035599004049      2.012757355012241E12     0.9245031079674554       -3.8355870438298063      -0.49863026432798724
-0.025235122770220594     -0.060571768954443765    0.05442636205744937      2.3494743963318096E12    0.6331891777916294       -3.894247862916589       -0.35918865735546673
-0.026880271134791165     -0.06061871298154715     0.051540039880390597     2.3909756801750996E12    0.6020714867651602       -3.7820217270939067      -0.3468031002550145
-0.0260686105633546       -0.0577098591324152      0.05296815147502925      2.6889959206140474E12    0.30250043157364453      -3.842600473057625       -0.22552119066200826
-0.026861952849655736     -0.06641990245146451     0.05157235768119882      1.4243130938458364E12    1.1852590548756123       -3.7746132002152954      -0.6530571640207623
-0.027688498215607517     -0.0635275668306791      0.05010993604431918      2.0438609712626768E12    0.8710845586890077       -3.719129956602462       -0.48307030256827566
-0.02849329180580365      -0.06643642067981104     0.04867783996681495      1.5027499159701982E12    1.109539647345186        -3.6539251615832886      -0.6343227976017914
-0.023331761865893797     -0.0594989210976108      0.05772536633664877      2.329493326667282E12     0.5445568316486913       -4.008673864802661       -0.3234607760892337
-0.023865627756766948     -0.06146629993704158     0.05680434121940215      2.1532957123936846E12    0.7659343015643947       -3.9757517246379113      -0.4162086921253503
-0.02470493612449729      -0.05860439011501299     0.05534960795635101      2.4954183581735127E12    0.4200883957472415       -3.9306292740956357      -0.2718425673748919
-0.023612066173036007     -0.05579061173870736     0.05724220012422757      2.521586197184498E12     0.09557711082080432      -3.998829801419257       -0.14422278943072148
-0.023471962979251994     -0.05764476641815909     0.0574838131428437       2.399657025798822E12     0.32026954376520206      -4.0042425545769555      -0.2321864223510347
-0.02484417274601346      -0.05675023543556128     0.05510747088674568      2.571281200623194E12     0.20497815694186786      -3.924441363528971       -0.18593153779043584
-0.02308484021926819      -0.052313802752662834    0.05815023316026935      2.4780335755302495E12    -0.3338236728589207      -4.029843805947491       0.019024755002938393
-0.022214868526023657     -0.05050177116488769     0.059641550589873        2.3121188542984434E12    -0.5749225158509379      -4.073619159413106       0.11055780549181365
-0.021341166036256003     -0.04868973957711252     0.061130564046611185     2.1582592311401504E12    -0.8275301079686321      -4.1104746681438025      0.20891513915201562
-0.023794868429390364     -0.0497966174634722      0.056926606150665006     2.496982755074747E12     -0.6243874379447191      -3.9879972085183892      0.13773934707670568
-0.02292796371905336      -0.047984585875697046    0.05841979566053851      2.2949143828252593E12    -0.8684446688244929      -4.034491676410973       0.23207928008699033
-0.024502375474788753     -0.04727943217428155     0.0557014581586619       2.4494014987498457E12    -0.8973940020469414      -3.9402259944411795      0.25574883063843673
-0.024320218469899176     -0.05327342644951675     0.05601745181372449      2.534840948237782E12     -0.203569441536743       -3.9580057480658777      -0.026978869727248396
-0.02502584960203856      -0.0507562411603261      0.05479118252082262      2.5394856675627236E12    -0.4851587929107142      -3.9112570780643887      0.08955994146418839
-0.025547927964893847     -0.054233050146370664    0.05388008029294508      2.582349622682656E12     -0.08519398170385224     -3.878715237603204       -0.07086339896929325
-0.019741982426393367     -0.04546470473413347     0.06383376331687665      1.4570237759587056E12    -1.2945105901784975      -4.161601283771693       0.40690110292191417
-0.021341166036255348     -0.044759551032718       0.06113056404660931      1.6801864637540981E12    -1.3194973334294797      -4.101748548783803       0.42857930894242097
-0.01974198242639003      -0.04153451618973893     0.06383376331687332      1.0450173003736809E12    -1.7834821498613436      -4.152582086620194       0.6582835316536423
-0.02134116603625469      -0.04082936248832346     0.061130564046607425     1.2486942883509163E12    -1.7805758478740357      -4.090576918140277       0.6789812123761529
-0.019741982426386702     -0.0376043276453444      0.06383376331687         8.333702054018683E11     -2.2415649985278985      -4.141117378185169       0.9404036940286972
-0.022927963719055377     -0.044054397331302515    0.058419795660538065     1.7488453398017227E12    -1.33251884904705        -4.023613123558947       0.4507629245793995
-0.03402589848881872      -0.06632962429826178     0.03860622638981785      1.249841176450137E12     0.8578494735956822       -3.200756482292627       -0.5893493545053174
-0.032200314321971416     -0.06631406738501108     0.041974364551011244     1.325792642695197E12     0.9304291397288322       -3.3563108643435697      -0.5991386651531379
-0.03329710056009055      -0.06320158445529642     0.03995627316511136      1.7534712576654683E12    0.6547399877611612       -3.266356805183834       -0.43180293266962716
-0.0314640676310715       -0.06321160539559595     0.04332001691669889      1.862724224563083E12     0.711218955811049        -3.4208155167265546      -0.4405317738197054
-0.030356112094299722     -0.06634966617886082     0.045331569076676945     1.4216166706638052E12    1.014325864312           -3.5073670907737897      -0.6141298128519623
-0.029612416641228056     -0.06327278204299593     0.046672827032758706     1.9645355805063071E12    0.7790149823109549       -3.5707760726485533      -0.45446245202078794
-0.032565264274899766     -0.060073544612331053    0.041304659889689094     2.091221821913647E12     0.42715684322665964      -3.3306202279108277      -0.28922168129054654
-0.030724782583708976     -0.06010914340618083     0.04466400923167074      2.2087093001420093E12    0.46753511319328556      -3.483983268945327       -0.29689005294288273
-0.031830389633246386     -0.0569455047693657      0.04265138656355106      2.407326505190062E12     0.17510003999217782      -3.3935467504736105      -0.16160560036807592
-0.028812440437810467     -0.060363928193863985    0.048107676527896756     2.3114927940098706E12    0.533638837236463        -3.636506268123864       -0.3201175334860657
-0.028009030743772655     -0.057455074344732036    0.04954053378160201      2.626373133293334E12     0.2577047088943022       -3.699923439071444       -0.20075790767159815
-0.029929623767069927     -0.05720028955704888     0.04610161214444262      2.5322012809058457E12    0.21523791170048004      -3.5502388648767735      -0.17945271090695408
-0.031143366534992507     -0.05375681043139397     0.04390392191010266      2.352472024819267E12     -0.09947518227939843     -3.450307953717253       -0.03307145902930105
-0.029235392881482053     -0.05401159521907715     0.04735007773875441      2.461955603474479E12     -0.08456903634204717     -3.6055189932744454      -0.04874640231666018
-0.02730759207085079      -0.0542663800067603      0.050784929623673994     2.5518059433669062E12    -0.06733396491917587     -3.7537224926231447      -0.06787943182978524
-0.030453723256724335     -0.050568116093422225    0.04515499213951263      2.355837743562515E12     -0.3900811268708659      -3.5058928185112275      0.10090545194745218
-0.028538541815879892     -0.0508229008811054      0.04859707821592458      2.467580322757842E12     -0.40040670670446554     -3.6596227832224475      0.08740267591161209
-0.029761459798441886     -0.04737942175545048     0.04640459725178099      2.404163980596474E12     -0.6967177937822245      -3.560301344855534       0.24032513256218382
-0.02627152770512612      -0.047312762034671205    0.05261187337351411      2.458476012062381E12     -0.8259504645750267      -3.821962070469793       0.24678637320980829
-0.02679025777018572      -0.050789571020715754    0.05169881479361319      2.497610041291224E12     -0.44050701578241874     -3.7896287435886657      0.08657069631962822
-0.028024555813010495     -0.04734609189506084     0.049512919737887136     2.434635369490087E12     -0.7590583951534545      -3.6953205206079107      0.241645140517724
-0.026207795522914384     -0.03758166108350667     0.05272434496234215      1.3801871546533132E12    -1.7812246400241654      -3.805893708592105       0.8489395435560178
-0.025640878961918474     -0.04081425144709831     0.05371763954747478      1.5377854024495056E12    -1.5194332078488566      -3.854589346976196       0.6207994414898796
-0.02407613111516751      -0.0375817533779783      0.05644124481019075      1.2583057595916729E12    -1.945557910055549       -3.9448899189364734      0.875139255731673
-0.023502825811301097     -0.040818075354640417    0.05743098199521077      1.3406628329019424E12    -1.6554477697931824      -3.9862106261315766      0.647746157942064
-0.02507240561254326      -0.044046841810689935    0.05471001061291469      1.8978423190350493E12    -1.2248229951897822      -3.8993667755925543      0.4230692038506859
-0.021920860082991614     -0.03758930889859087     0.06014438426170002      1.0921379001770498E12    -2.0990046962234596      -4.056631142134161       0.9056273058892327
-0.02683639054376656      -0.04408017167107959     0.05161739568370519      1.9464399737848523E12    -1.1324621255501333      -3.777226384602183       0.4109966443981645
-0.027399696594027703     -0.04084758130748794     0.05062199447420355      1.5398895355119023E12    -1.4061550060414734      -3.72857248896684        0.6056167800134651
-0.028584251352536876     -0.044113501531469215    0.0485154119040165       1.916083101665182E12     -1.0446527239608265      -3.646708367721317       0.40274530968218714
-0.03924196273861451      -0.06615968373954978     0.028723965609407893     1.0045645916802194E12    0.6769164353772891       -2.742511339993728       -0.5451306580013027
-0.037521489201596474     -0.06624086503730041     0.03202726493033518      1.0494267555183975E12    0.7323607765446296       -2.89696109974736        -0.5635218507391495
-0.03869428797740436      -0.06343117123514158     0.029780299168901087     1.4271788716082222E12    0.531917764365697        -2.7917854851858785      -0.41562268134796654
-0.03696795841211015      -0.0635000853104689      0.03308072673568971      1.4974698828618174E12    0.5755419693760531       -2.9467200663256374      -0.4295020726772251
-0.03578280111833121      -0.0662975118902044      0.0353213518571385       1.1312737433376946E12    0.792671789284094        -3.0497094805136595      -0.5782614162404875
-0.035223414300568696     -0.06354446494094958     0.036371941908354355     1.5843485444486638E12    0.6240328459585327       -3.099953268478064       -0.43972983676997524
-0.038144760413786664     -0.06070265873073338     0.030835681634532784     1.7062094734517632E12    0.3740311265100026       -2.8411499510392333      -0.29646475227874697
-0.03641257482021627      -0.0607593055836374      0.03413323744718275      1.7766230067193257E12    0.40583519536337376      -2.996569353565119       -0.3058323421994174
-0.03759338004776142      -0.0579741462263252      0.03189011300630299      1.9749516256599827E12    0.20325652181020534      -2.890604737553792       -0.18765687079364402
-0.0344996550435208       -0.06041642509798423     0.037724697739207044     1.9240003068745896E12    0.4179046737578506       -3.1650537271889436      -0.2973000361047172
-0.033772857430010295     -0.057288385255018864    0.03907579351934394      2.2435537715114805E12    0.1873028428571881       -3.228817285735611       -0.1698354058960689
-0.03569385423484865      -0.05763126574067204     0.035488702333594586     2.119286912627161E12     0.19668833679653067      -3.0611699480956718      -0.17851916270459167
-0.040953886671117795     -0.05981868474623094     0.025392535792492413     1.7597439237941355E12    0.28003605522713443      -2.582497885795792       -0.24686944479475045
-0.04179158406852601      -0.06183587385864505     0.023745734582363634     1.5085416428684453E12    0.38042186912260645      -2.5063990162873635      -0.32210535728090234
-0.040385293692954266     -0.06193235107733724     0.026504043062211505     1.544639896275021E12     0.4098399003820747       -2.6362612093803297      -0.3364949437403571
-0.04122616798599838      -0.0639611566446333      0.024858480330219562     1.3112594254288364E12    0.5057678974101653       -2.5599873973119136      -0.4196655796203671
-0.04262477300543674      -0.06385306297105914     0.02209672244057124      1.2988552823459702E12    0.47133995344647933      -2.4312648946502153      -0.3999910921093727
-0.042062533818544995     -0.06598996221192933     0.023210706666563996     9.271758162912008E11     0.5922281648666566       -2.484678333114778       -0.5054860378426955
-0.04345345348184998      -0.06587025208347326     0.020445499367115223     9.479798784934554E11     0.5527903081987531       -2.3570955208843487      -0.48052664928016176
-0.039814652382119835     -0.06404601740844351     0.027614519667849998     1.3499090484642783E12    0.5421333604321262       -2.689599027446308       -0.4359153481425411
-0.04065870357079985      -0.06608643943062154     0.025970195413994895     9.540611330808158E11     0.6336035405928353       -2.6131502728179052      -0.5270207074164092
-0.039841515189931266     -0.05920383857292903     0.027562356852789797     1.8324129390686726E12    0.25746782498864346      -2.6860552630020065      -0.22811423684147697
-0.03926892575000327      -0.06131750490403533     0.028671843342885747     1.628535395377536E12     0.39344798722961466      -2.7391331268532224      -0.3169710063664331
-0.038721346315479147     -0.0585889923996271      0.029728215924059987     1.881632832236404E12     0.2318746471830004       -2.78875754692134        -0.20837671217444148
-0.04642909983904214      -0.06556190991369742     0.01442188033959485      7.263636666132036E11     0.4720006496766576       -2.0979481520887755      -0.4238791798527419
-0.04544389660114455      -0.06566766372038435     0.016432889814827538     7.955601267148287E11     0.4980891497339262       -2.1812087962617186      -0.4430786231199056
-0.046342449818727725     -0.06435224945948712     0.014599425351115143     1.010783619806674E12     0.4215857834548083       -2.103093406978776       -0.37466468398443437
-0.04535665204805841      -0.0644565167244599      0.016610169361211385     1.0694927184424146E12    0.4456036464483842       -2.1867888523395282      -0.39231635905962037
-0.04445201448208049      -0.06577044444364295     0.018440762824000995     8.403176111159784E11     0.5250190359079581       -2.2675912525269095      -0.46196111292904546
-0.04436417539622263      -0.06455781090600435     0.018617776905248393     1.1587780639448838E12    0.4704628955587232       -2.2736061097925275      -0.4096510806767826
-0.04625574785123118      -0.06314258900527679     0.014776946184911849     1.1622098471994187E12    0.37012718402510447      -2.1080940725457102      -0.32846647722031236
-0.04526935554779015      -0.06324536972853545     0.016787424729871644     1.2245712035801577E12    0.39207440995498766      -2.1922243190942714      -0.3445703841035208
-0.046168993936552515     -0.061932928551066496    0.014954442840984968     1.3050038761071707E12    0.3176248513875462       -2.1129501487895785      -0.2852845595603761