% Model:              wentai_test_m86.mph
% Version:            COMSOL 5.5.0.292
% Date:               Jan 3 2022, 18:32
% Dimension:          3
% Nodes:              22177
% Expressions:        4
% Description:        表面
% X                       Y                        Z                        Color                    DeformX                  DeformY                  DeformZ
-0.04851473881663425      -0.06529392956856216     0.010108330297943599     7.624009366226472E11     0.8835719218168904       -4.078982050517241       -0.8155809126362376
-0.048514721764346014     -0.06353093245825568     0.010108366803403778     1.1763209490215513E12    0.7337683293263424       -4.072279001530974       -0.6725567281237582
-0.0487596548365826       -0.06529260895154608     0.009293285712236105     6.561234001953402E11     0.8710501794834586       -4.01827362299168        -0.8113701227380286
-0.04875965131906641      -0.06353012398785107     0.009293312779510773     1.0512873020160619E12    0.7226684477955623       -4.0130487898635705      -0.6688673107698101
-0.04851471445622633      -0.061767935347949186    0.010108382448604845     1.4950971367399377E12    0.5830957834762778       -4.065598158317606       -0.5427469974501676
-0.04875965754571876      -0.061767639024156044    0.009293318986526324     1.2885700275184575E12    0.5734177627481494       -4.007846162508358       -0.5395789526404804
-0.04851471689227521      -0.060004938237642705    0.0101083772335468       1.8349412440624172E12    0.4315542842666968       -4.058939520877138       -0.42615172061546597
-0.04875457941268432      -0.0652923126277529      0.008479800673698218     6.22612745458843E11      0.8598144173440421       -3.937833230197758       -0.8097151883049376
-0.04875458942994017      -0.06353033981066938     0.008479818302787373     9.665535503967146E11     0.7128545464587974       -3.9340866129278034      -0.6677337488809802
-0.0484995125449394       -0.06529304059718265     0.007667875182329935     7.063739394235215E11     0.8498646353986408       -3.8376608721354724      -0.8106161093369655
-0.048499512669747995     -0.05999515833337221     0.007667875434681681     1.7153938612710017E12    0.41085103099693887      -3.8352043566192395      -0.42326934630995
-0.04849951262814513      -0.061761119087975706    0.007667875350564432     1.3421512351550415E12    0.5563838462914102       -3.8350837367490525      -0.5383485234556082
-0.04875458945849632      -0.05999841830146241     0.008479818490634556     1.592906645403854E12     0.417065745716348        -3.9301716604524723      -0.42312204197488124
-0.048754589444218246     -0.06176437905606591     0.008479818396710965     1.2081263869934648E12    0.564557619667858        -3.9316594075023388      -0.538409690162924
-0.04849951258654226      -0.06352707984257917     0.007667875266447183     1.0433770434490759E12    0.7027217144253108       -3.8359025752544635      -0.6674641111312798
-0.04875965753267205      -0.060001678269552564    0.009293319090256262     1.6104039929739272E12    0.4239668301396007       -4.004750048538439       -0.42408283341005326
-0.04851471689227521      -0.05725706781259607     0.0101083772335468       1.9417762868177056E12    0.19527954851705268      -4.05082360248608        -0.2674565611672127
-0.048759657532672064     -0.057253807844505934    0.009293319090256238     1.6636057408831917E12    0.19199181518640926      -3.99909989512008        -0.2667424679632105
-0.048514716892275205     -0.054509197387549405    0.0101083772335468       2.0071283223924E12       -0.041005287009272966    -4.045966223895733       -0.11706972780028352
-0.04875965753267205      -0.05450593741945927     0.00929331909025621      1.7012313728550244E12    -0.0399932995434638      -3.996708281502431       -0.11771042859769182
-0.048514716892275205     -0.05176132696250277     0.0101083772335468       2.0854485009596885E12    -0.2773002223122801      -4.044367385106098       0.025008779485321406
-0.048754589458496325     -0.05725054787641576     0.008479818490634504     1.671444199993625E12     0.18939045155960926      -3.9269872720068117      -0.267136470529449
-0.048499512669748        -0.0517216157071306      0.00766787543468168      2.1724844955942283E12    -0.2628379265523679      -3.835201532349767       0.02880740764677242
-0.048499512669748        -0.054479463249211144    0.007667875434681681     1.9646467587784924E12    -0.038666097539276106    -3.834188683640301       -0.115483400763639
-0.048754589458496325     -0.051734852792254676    0.00847981849063452      1.7561263006547393E12    -0.2675155293024195      -3.9255116096155858      0.02560039621157562
-0.048754589458496325     -0.05449270033433522     0.00847981849063451      1.7167823916794607E12    -0.03925811728974377     -3.925742545744887       -0.11756731570468863
-0.048499512669748        -0.05723731079129168     0.00766787543468168      1.8688279347486577E12    0.18589688831049278      -3.834189625063458       -0.26617565208254645
-0.04875965753267206      -0.05174808987737872     0.009293319090256226     1.7556633834791343E12    -0.2723362945557236      -3.9952335605343627      0.02433418682442528
-0.048499512669748        -0.04344538320562743     0.007667875434681681     1.1224954114029949E12    -0.9356427020036541      -3.8254280338713786      0.5486118983284919
-0.048499512669748        -0.046204127372795153    0.007667875434681681     1.5244045247260205E12    -0.7106725784977362      -3.82764937005592        0.35314244034375886
-0.048754589458496304     -0.04346860144873633     0.008479818490632321     1.0023412821586919E12    -0.9490808784551532      -3.9244236514990263      0.5437133648486123
-0.048754589458496325     -0.04622734561590407     0.008479818490632353     1.310010697495936E12     -0.7213301971623477      -3.923913341873125       0.34842600988073497
-0.048499512669748        -0.04896287153996288     0.00766787543468168      1.840780695651926E12     -0.48640432001397405     -3.8309072028820497      0.17987427678318565
-0.04875458945849631      -0.04898608978307179     0.00847981849063238      1.5415461733247285E12    -0.49428138089169793     -3.9244395288888105      0.1753399493370174
-0.048759657532672036     -0.043491819691845235    0.009293319090254028     9.92467779354434E11      -0.9637915381204286      -4.002801244768946       0.5429220989313219
-0.048759657532672064     -0.04625056385901299     0.00929331909025409      1.3113476753694395E12    -0.7332602990407354      -3.9995592893326006      0.3478168469803002
-0.048514716892275205     -0.04351503793495414     0.0101083772335468       1.2082273139025166E12    -0.9797746809994804      -4.060560813681138       0.5462381005766207
-0.048514716892275205     -0.0490125639533199      0.0101083772335468       1.7952985176019624E12    -0.5129982220398274      -4.047982100431666       0.1788683122809227
-0.048759657532672064     -0.04899932686819586     0.009293319090255159     1.5029631728452969E12    -0.5035682202141365      -3.9965048778337593      0.17613372978494682
-0.0485147168922752       -0.04626380094413702     0.0101083772335468       1.5262199507846487E12    -0.7471563749355609      -4.0533799099566785      0.35261141931135576
-0.048499512669738        -0.0381431649117068      0.00766787543467168      4.4865062419427637E11    -1.3703254627435895      -3.8250515492595034      1.0287978873016097
-0.04849951266974134      -0.039910571009680346    0.007667875434675014     4.238161788813965E11     -1.2243557839126908      -3.8239085561457866      0.8549765072953954
-0.04875458338242887      -0.03819984180662221     0.008478867716049884     3.3969437188113025E11    -1.380937079596599       -3.9279790829725987      1.0219977888242842
-0.048754586420463146     -0.03995200176076689     0.008479343103340566     3.4916603896690015E11    -1.236925072071195       -3.9262541957194435      0.8483714616476888
-0.04849951266974467      -0.041677977107653884    0.0076678754346783465    7.261715941872733E11     -1.079461530332712       -3.824034051016411       0.6949145109710227
-0.04875458945849741      -0.04170416171491155     0.008479818490631246     6.730852229716472E11     -1.0939884897967111      -3.9257977964506297      0.688504518152935
-0.0487596514566046       -0.03822602641387987     0.009292368315671588     2.6581506104698004E11    -1.396343573286857       -4.0114848587770435      1.0224231734993525
-0.04875965753266982      -0.03996294022419568     0.00929331909024962      3.6695032595160486E11    -1.2542892370669478      -4.009178077384449       0.848991899152376
-0.048514716892265206     -0.0382217187334798      0.0101083772335368       3.6406038015081934E11    -1.4165449438143642      -4.075568876672839       1.0300740413268148
-0.04851471689227187      -0.04175059820112936     0.010108377233543466     7.642821105868962E11     -1.127183876582084       -4.066357378628296       0.6932804494534295
-0.048759657532670926     -0.04172737995802046     0.009293319090251825     6.307240267225538E11     -1.1099499415825096      -4.0063865997183274      0.6888388500218877
-0.048514716892268536     -0.03998615846730458     0.01010837723354013      4.66759315182218E11      -1.272773964187045       -4.071360066292196       0.8545590963701607
-0.02194908778754411      -0.0603934520802086      0.060095426615922515     4.456084090331688E12     1.4177535016304654       -8.55119865802896        -0.7978614691008353
-0.021216005879843233     -0.0622920453783423      0.06134316011669001      3.6579862594767773E12    1.94356024298678         -8.604611438888998       -1.028706265852143
-0.021216005879840554     -0.059833628181012344    0.06134316011669157      4.195626132788079E12     1.2939548506990417       -8.617154488093739       -0.7488061594964331
-0.020480304092791092     -0.061732221479146046    0.06258927235034163      3.459125874327213E12     1.826904586182212        -8.660094478656463       -0.9792994618010973
-0.02048030409279076      -0.064190638676476       0.06258927235033918      2.900974613215755E12     2.4719194031921514       -8.648069162876336       -1.2795306498339867
-0.019741982426390033     -0.06363081477727973     0.06383376331687333      2.5951263085664316E12    2.362406740514439        -8.693079412346489       -1.2297723513362975
-0.019741982426386702     -0.0660892319746097      0.06383376331687         1.6966330006212983E12    3.0028309822465813       -8.681571829990979       -1.5503346210463662
-0.020480304092791418     -0.059273804281816084    0.06258927235034405      4.0357017538418174E12    1.1620024635517694       -8.674100771282667       -0.6974173476721781
-0.01974198242639337      -0.061172397579949786    0.06383376331687668      3.1817668184508447E12    1.7020951931617954       -8.706567971548079       -0.9275591555301989
-0.0197419824263967       -0.05871398038261981     0.06383376331688         3.7127243023662773E12    1.021896340188649        -8.722037507595749       -0.6436950336280702
-0.022090253392744327     -0.05853929740075689     0.05985445729791768      4.66990539924534E12      0.9280478193736497       -8.545588290955292       -0.5951580472408096
-0.021357677983842128     -0.057979473501560644    0.06110250223915622      4.455664599153577E12     0.7922091822628741       -8.613918556665586       -0.5443695837723876
-0.02062248269559434      -0.057419649602364356    0.06234892591327818      4.313390064992823E12     0.6482168089362499       -8.67323927550003        -0.4912476180841126
-0.022231321078370364     -0.056685142721305176    0.0596134281551018       4.923488899055658E12     0.4374923206478598       -8.53791928748835        -0.39939906416737714
-0.021499252168269516     -0.056125318822108916    0.06086178453680983      4.728255302587068E12     0.28961369735773235      -8.608623988844162       -0.3468774468349353
-0.022372290844422226     -0.05483098804185345     0.0593723391874749       5.170509504033521E12     -0.05391299454690411     -8.528191647628137       -0.21058451988053797
-0.021499252168270165     -0.0530189564540783      0.06086178453680871      4.803256149903922E12     -0.5534271197261277      -8.61430961241697        -0.024475972493985112
-0.020622482695594663     -0.05431328723433376     0.062348925913277634     4.388425861145318E12     -0.21307790073742552     -8.682526606088423       -0.1573455797331131
-0.0197419824263967       -0.05560761801458921     0.06383376331687998      3.8361465363543716E12    0.14234773792515804      -8.734926545199723       -0.2982924312670212
-0.02062248269559499      -0.051206924866303155    0.06234892591327707      4.479881451923989E12     -1.0770815479420757      -8.685912780937095       0.17594692495466602
-0.0197419824263967       -0.05250125564655862     0.06383376331688         3.9137210272981924E12    -0.7399098018693077      -8.741914427063978       0.04650063743080732
-0.019741982426396697     -0.04939489327852801     0.06383376331687998      4.0212155827980645E12    -1.624876279194748       -8.743001153188516       0.3906841724654155
-0.02248663292356711      -0.062360830919639364    0.0591766222803309       4.09748704053812E12      1.8994671007377903       -8.489398493486767       -1.0037365378159935
-0.021755514520240153     -0.06426049903834471     0.060425487055779034     3.2798246547828E12       2.417327469697947        -8.54971736289692        -1.251899853933567
-0.02302275315468914      -0.06432820975907014     0.0582569524632358       3.688685758250369E12     2.3510444747749735       -8.424919791290277       -1.2210885343346918
-0.0222935982557361       -0.06622895269834711     0.05950694851336455      2.520107053981963E12     2.860958471338973        -8.492144749250546       -1.4865703698185313
-0.023557448480910206     -0.06629558859850092     0.057336417164637214     2.804267631790465E12     2.7724856237420163       -8.357762551439494       -1.4499174586569303
-0.0210217762375616       -0.06616016715705005     0.061672730564108824     2.222319654618494E12     2.937740257507161        -8.600081175434376       -1.5200427572816766
-0.024398068742739133     -0.06343367877647235     0.05588245062065203      4.150052707963036E12     2.04081041705554         -8.267646929706244       -1.0790444469811182
-0.025216671741357926     -0.06637295842436115     0.05445855008047291      2.9450881483642646E12    2.6345393252501195       -8.148625253397775       -1.4096227925950364
-0.026050254555248276     -0.06349583570295415     0.05300035599004049      4.2218812799549414E12    1.9392016406392256       -8.045377699247375       -1.0459073833355461
-0.025235122770220594     -0.060571768954443765    0.05442636205744937      4.928165805424229E12     1.3281529092461146       -8.16842234412561        -0.7534201102616898
-0.026880271134791165     -0.06061871298154715     0.051540039880390597     5.015217278822807E12     1.262881654905382        -7.9330211812495905      -0.7274406490324397
-0.0260686105633546       -0.0577098591324152      0.05296815147502925      5.6403329049095625E12    0.6345131003137402       -8.060088794697593       -0.4730444484986457
-0.026861952849655736     -0.06641990245146451     0.05157235768119882      2.9875835618058525E12    2.4861531388567015       -7.9174813443856955      -1.3698272216177263
-0.027688498215607517     -0.0635275668306791      0.05010993604431918      4.2871230115832744E12    1.8271529763213894       -7.801101857818144       -1.013269414774558
-0.02849329180580365      -0.06643642067981104     0.04867783996681495      3.1521095789019844E12    2.3273270645617607       -7.66433082440325        -1.3305307457249997
-0.023331761865893797     -0.0594989210976108      0.05772536633664877      4.886254293457291E12     1.1422411588725843       -8.408437860207595       -0.6784787008021307
-0.023865627756766948     -0.06146629993704158     0.05680434121940215      4.516669053879184E12     1.6065939004991328       -8.339381663784067       -0.8730231099898544
-0.02470493612449729      -0.05860439011501299     0.05534960795635101      5.234292164311184E12     0.8811610251003422       -8.24473457243047        -0.5702063606014007
-0.023612066173036007     -0.05579061173870736     0.05724220012422757      5.289180802216732E12     0.20047881791297611      -8.387789337019539       -0.3025160947508482
-0.023471962979251994     -0.05764476641815909     0.0574838131428437       5.033426930611431E12     0.6717848966272671       -8.399142916810204       -0.48702517838319287
-0.02484417274601346      -0.05675023543556128     0.05510747088674568      5.393419102080586E12     0.42995418286652426      -8.231755052709357       -0.39000273762355075
-0.02308484021926819      -0.052313802752662834    0.05815023316026935      5.197826522670354E12     -0.7002155085469334      -8.452843102597303       0.03990558371514913
-0.022214868526023657     -0.05050177116488769     0.059641550589873        4.849810278244229E12     -1.2059350327082214      -8.544664575694512       0.2319017383401427
-0.021341166036256003     -0.04868973957711252     0.061130564046611185     4.527080337084643E12     -1.735794859906234       -8.621971252523013       0.4382122430272346
-0.023794868429390364     -0.0497966174634722      0.056926606150665006     5.237573582181279E12     -1.3096907229344614      -8.36506731289397        0.28891667921263964
-0.02292796371905336      -0.047984585875697046    0.05841979566053851      4.813722850277883E12     -1.8216156460778143      -8.462592294299554       0.48680044107607395
-0.024502375474788753     -0.04727943217428155     0.0557014581586619       5.137768995764026E12     -1.8823386377094893      -8.264864278518145       0.5364487666119336
-0.024320218469899176     -0.05327342644951675     0.05601745181372449      5.316983450750797E12     -0.4269993161120985      -8.302158395864591       -0.05658982422443927
-0.02502584960203856      -0.0507562411603261      0.05479118252082262      5.32672603273516E12      -1.0176501505246722      -8.204100210037144       0.18785743820377307
-0.025547927964893847     -0.054233050146370664    0.05388008029294508      5.416635792237074E12     -0.17869957118359583     -8.135841715430296       -0.14864030016642005
-0.019741982426393367     -0.04546470473413347     0.06383376331687665      3.056196212034958E12     -2.7153148954455926      -8.729212446250784       0.8534998742210543
-0.021341166036255348     -0.044759551032718       0.06113056404660931      3.524293557011091E12     -2.7677261129926607      -8.603667685091391       0.8989712331826876
-0.01974198242639003      -0.04153451618973893     0.06383376331687332      2.1919875074023606E12    -3.74096255690175        -8.710294130280944       1.3807898465256678
-0.02134116603625469      -0.04082936248832346     0.061130564046607425     2.619212408864825E12     -3.734866411284402       -8.580234508627662       1.4242044938871152
-0.019741982426386702     -0.0376043276453444      0.06383376331687         1.748044820503636E12     -4.701819263563223       -8.686246205278998       1.9725540893792555
-0.022927963719055377     -0.044054397331302515    0.058419795660538065     3.6683097359838916E12    -2.795039535999824       -8.439773866374043       0.945502719631341
-0.03402589848881872      -0.06632962429826178     0.03860622638981785      2.621618076650153E12     1.7993915782903471       -6.71378188764093        -1.2361962065772119
-0.032200314321971416     -0.06631406738501108     0.041974364551011244     2.7809309082407314E12    1.9516318535565396       -7.040066688917088       -1.2567298825626514
-0.03329710056009055      -0.06320158445529642     0.03995627316511136      3.6780128808034355E12    1.3733570471623513       -6.851382564884014       -0.9057329803864835
-0.0314640676310715       -0.06321160539559595     0.04332001691669889      3.907177640571459E12     1.4918251264602522       -7.17536913046094        -0.9240422569383673
-0.030356112094299722     -0.06634966617886082     0.045331569076676945     2.9819276497769614E12    2.127610348980344        -7.356916334504527       -1.2881747289452474
-0.029612416641228056     -0.06327278204299593     0.046672827032758706     4.1207331676094355E12    1.6340314259157651       -7.489920540349145       -0.9532627038874075
-0.032565264274899766     -0.060073544612331053    0.041304659889689094     4.3864652836320645E12    0.895987524631013        -6.986179012515301       -0.6066601117289115
-0.030724782583708976     -0.06010914340618083     0.04466400923167074      4.632902433014207E12     0.9806834079606224       -7.307867342392992       -0.6227449888472396
-0.031830389633246386     -0.0569455047693657      0.04265138656355106      5.049514131265711E12     0.36728301069633257      -7.118171230534789       -0.33897760060449644
-0.028812440437810467     -0.060363928193863985    0.048107676527896756     4.848497078622307E12     1.1193399998264444       -7.627793633256887       -0.6714660455815757
-0.028009030743772655     -0.057455074344732036    0.04954053378160201      5.508977790075598E12     0.5405513405614883       -7.760815016181182       -0.4211019524840678
-0.029929623767069927     -0.05720028955704888     0.04610161214444262      5.3114465875658545E12    0.4514746440223526       -7.446842494793581       -0.37641300318601806
-0.031143366534992507     -0.05375681043139397     0.04390392191010266      4.934453513928372E12     -0.20865526022825956     -7.237231315352343       -0.06936940177804833
-0.029235392881482053     -0.05401159521907715     0.04735007773875441      5.164101995917382E12     -0.17738871020957994     -7.562795934813398       -0.10224855110192056
-0.02730759207085079      -0.0542663800067603      0.050784929623673994     5.352568562465481E12     -0.14123709697778453     -7.873661811403263       -0.14238124714232092
-0.030453723256724335     -0.050568116093422225    0.04515499213951263      4.941513314206514E12     -0.818218948691188       -7.353823958544651       0.21165533823679136
-0.028538541815879892     -0.0508229008811054      0.04859707821592458      5.175900187570797E12     -0.8398774819798489      -7.67628193320797        0.18333244217056852
-0.029761459798441886     -0.04737942175545048     0.04640459725178099      5.042880543062667E12     -1.4614080546924535      -7.467949160111716       0.5040966194400226
-0.02627152770512612      -0.047312762034671205    0.05261187337351411      5.156803340745697E12     -1.7324814616099837      -8.016798486846293       0.5176494656719199
-0.02679025777018572      -0.050789571020715754    0.05169881479361319      5.238889353259907E12     -0.9239903253720139      -7.948977362187703       0.1815873142458158
-0.028024555813010495     -0.04734609189506084     0.049512919737887136     5.106796139262537E12     -1.5921712672709714      -7.75116011404415        0.5068654166146163
-0.026207795522914384     -0.03758166108350667     0.05272434496234215      2.895026713629514E12     -3.7362272924220403      -7.9830941180439225      1.780702456752621
-0.025640878961918474     -0.04081425144709831     0.05371763954747478      3.2255986479652764E12    -3.187103800705942       -8.085236188768913       1.3021646818301829
-0.02407613111516751      -0.0375817533779783      0.05644124481019075      2.639373055795969E12     -4.080926346508511       -8.27464714453359        1.835657950565079
-0.023502825811301097     -0.040818075354640417    0.05743098199521077      2.8121220388194653E12    -3.47240263784821        -8.36131984740394        1.358687062660439
-0.02507240561254326      -0.044046841810689935    0.05471001061291469      3.980839984992889E12     -2.569140915801758       -8.179159575593653       0.8874134517832871
-0.021920860082991614     -0.03758930889859087     0.06014438426170002      2.290825838617009E12     -4.402790336888905       -8.509031173611948       1.899608494773957
-0.02683639054376656      -0.04408017167107959     0.05161739568370519      4.0827765290595034E12    -2.3754083600470426      -7.922962657982339       0.8620905222091964
-0.027399696594027703     -0.04084758130748794     0.05062199447420355      3.2300121953510586E12    -2.9494958652960155      -7.820908145218134       1.270318123622015
-0.028584251352536876     -0.044113501531469215    0.0485154119040165       4.019101138772796E12     -2.1912227860528204      -7.649193159240733       0.8447828445178156
-0.03924196273861451      -0.06615968373954978     0.028723965609407893     2.1071354843390125E12    1.4198734982221264       -5.752584760185822       -1.1434447944299782
-0.037521489201596474     -0.06624086503730041     0.03202726493033518      2.2012366084658438E12    1.5361713845428406       -6.076552548838011       -1.1820214425989244
-0.03869428797740436      -0.06343117123514158     0.029780299168901087     2.9935947053681924E12    1.1157299444873907       -5.8559402842162775      -0.8717939166534192
-0.03696795841211015      -0.0635000853104689      0.03308072673568971      3.1410343874695684E12    1.207234374486975        -6.18092501528798        -0.9009067862606743
-0.03578280111833121      -0.0662975118902044      0.0353213518571385       2.3729156560444194E12    1.662677411232247        -6.396951591323045       -1.2129385799813355
-0.035223414300568696     -0.06354446494094958     0.036371941908354355     3.323267677578135E12     1.3089469448552515       -6.502341000192528       -0.9223601450813943
-0.038144760413786664     -0.06070265873073338     0.030835681634532784     3.5788784066129272E12    0.7845530944540118       -5.959485261340988       -0.6218528947780338
-0.03641257482021627      -0.0607593055836374      0.03413323744718275      3.7265750861085957E12    0.8512640681324659       -6.285486934832203       -0.6415019858235977
-0.03759338004776142      -0.0579741462263252      0.03189011300630299      4.1425814574101406E12    0.4263429481219898       -6.063219691559952       -0.3936217288038221
-0.0344996550435208       -0.06041642509798423     0.037724697739207044     4.035707959510352E12     0.8765805350093969       -6.6388931818380525      -0.6236049535308767
-0.033772857430010295     -0.057288385255018864    0.03907579351934394      4.705990836338752E12     0.3928791337601994       -6.772641133871778       -0.35624011951351536
-0.03569385423484865      -0.05763126574067204     0.035488702333594586     4.445333522662189E12     0.4125657795687519       -6.420990620880167       -0.37445482891329074
-0.040953886671117795     -0.05981868474623094     0.025392535792492413     3.691170180469487E12     0.5873927010829019       -5.416946783191777       -0.5178237132593204
-0.04179158406852601      -0.06183587385864505     0.023745734582363634     3.164258079178264E12     0.7979580667486057       -5.257324764271477       -0.6756356272074232
-0.040385293692954266     -0.06193235107733724     0.026504043062211505     3.239976366788201E12     0.8596641810826852       -5.529718632626826       -0.705818662210401
-0.04122616798599838      -0.0639611566446333      0.024858480330219562     2.750446598822841E12     1.0608790040537674       -5.369729661019863       -0.8802741422966123
-0.04262477300543674      -0.06385306297105914     0.02209672244057124      2.7244281523647188E12    0.9886642923435595       -5.0997263628367655      -0.839005705091037
-0.042062533818544995     -0.06598996221192933     0.023210706666563996     1.944807809176045E12     1.2422346869540999       -5.211764306898489       -1.0602877863183346
-0.04345345348184998      -0.06587025208347326     0.020445499367115223     1.988445598172293E12     1.1595113778677633       -4.944151578887644       -1.007933946910162
-0.039814652382119835     -0.06404601740844351     0.027614519667849998     2.8315165398003623E12    1.1371577801290933       -5.641597958291508       -0.9143590226006202
-0.04065870357079985      -0.06608643943062154     0.025970195413994895     2.0012014004767822E12    1.3290220604055543       -5.481242033997882       -1.1054580688249398
-0.039841515189931266     -0.05920383857292903     0.027562356852789797     3.8435978709974355E12    0.5400544620637237       -5.634164696289595       -0.47848352097820585
-0.03926892575000327      -0.06131750490403533     0.028671843342885747     3.415952291679466E12     0.8252811437522448       -5.745498752138121       -0.6648660130962434
-0.038721346315479147     -0.0585889923996271      0.029728215924059987     3.946839598097009E12     0.4863712110767529       -5.849588999078986       -0.43708285949303977
-0.04642909983904214      -0.06556190991369742     0.01442188033959485      1.5235920807179875E12    0.9900501429633478       -4.400574171337133       -0.8891124257060338
-0.04544389660114455      -0.06566766372038435     0.016432889814827538     1.6687358750305566E12    1.0447723625814904       -4.5752184493047645      -0.929384428645392
-0.046342449818727725     -0.06435224945948712     0.014599425351115143     2.1201802750365999E12    0.8843018870179734       -4.4113666572006895      -0.7858820197698126
-0.04535665204805841      -0.0644565167244599      0.016610169361211385     2.243326189208045E12     0.9346808191380017       -4.586922957171759       -0.822907484551329
-0.04445201448208049      -0.06577044444364295     0.018440762824000995     1.762617427647058E12     1.1012594408829621       -4.7564109184882675      -0.9689916023801013
-0.04436417539622263      -0.06455781090600435     0.018617776905248393     2.4306076455684673E12    0.986824609941359        -4.7690274483587         -0.8592681201281964
-0.04625574785123118      -0.06314258900527679     0.014776946184911849     2.437806020201802E12     0.7763643370275375       -4.421855858142804       -0.6889784641477384
-0.04526935554779015      -0.06324536972853545     0.016787424729871644     2.568612767690035E12     0.8223999816494514       -4.598324180117312       -0.722757390771413
-0.046168993936552515     -0.061932928551066496    0.014954442840984968     2.7373252026970996E12    0.6662374929920399       -4.432041774163478       -0.5984017588398112