% Model:              wentai_test_m60.mph
% Version:            COMSOL 5.5.0.292
% Date:               Jan 3 2022, 18:04
% Dimension:          3
% Nodes:              22177
% Expressions:        4
% Description:        表面
% X                       Y                        Z                        Color                    DeformX                  DeformY                  DeformZ
-0.04851473881663425      -0.06529392956856216     0.010108330297943599     5.319076307053878E11     0.616445527447299        -2.845801433297318       -0.5690099395492418
-0.048514721764346014     -0.06353093245825568     0.010108366803403778     8.206890349810073E11     0.5119313930532405       -2.8411248874886827      -0.4692256246773552
-0.0487596548365826       -0.06529260895154608     0.009293285712236105     4.5776051219743365E11    0.607709428135781        -2.8034467163781818      -0.5660721791521774
-0.04875965131906641      -0.06353012398785107     0.009293312779510773     7.334562579181558E11     0.5041872896514981       -2.79980148395994        -0.46665161256733073
-0.04851471445622633      -0.061767935347949186    0.010108382448604845     1.0430910266258228E12    0.4068110121287014       -2.8364638340797788      -0.3786606962135127
-0.04875965754571876      -0.061767639024156044    0.009293318986526324     8.990023456373696E11     0.4000589046367344       -2.7961717439414295      -0.3764504323905279
-0.04851471689227521      -0.060004938237642705    0.0101083772335468       1.280191566845323E12     0.3010843846736817       -2.8318182730706063      -0.29731515415771437
-0.04875457941268432      -0.0652923126277529      0.008479800673698218     4.3438098561504504E11    0.5998705243092739       -2.747325512049562       -0.5649175737327221
-0.04875458942994017      -0.06353033981066938     0.008479818302787373     6.743396869652964E11     0.49734038173476647      -2.744711593021714       -0.4658607554349151
-0.0484995125449394       -0.06529304059718265     0.007667875182329935     4.9281902797266504E11    0.592928815967778        -2.6774378203114586      -0.565546123290876
-0.048499512669747995     -0.05999515833337221     0.007667875434681681     1.196786415982556E12     0.2866402544691729       -2.6757239722759127      -0.29530419533824487
-0.04849951262814513      -0.061761119087975706    0.007667875350564432     9.363845835599768E11     0.388174776863147        -2.675639818877785       -0.375591993423961
-0.04875458945849632      -0.05999841830146241     0.008479818490634556     1.1113302187839526E12    0.2909761019528522       -2.741980230827483       -0.2952014248714763
-0.048754589444218246     -0.06176437905606591     0.008479818396710965     8.428788754502089E11     0.3938774094576955       -2.7430181938862774      -0.3756346678706153
-0.04849951258654226      -0.06352707984257917     0.007667875266447183     7.27937472867521E11      0.4902709640293486       -2.6762111015563006      -0.465672636074838
-0.04875965753267205      -0.060001678269552564    0.009293319090256262     1.123537670588454E12     0.29579081202102175      -2.7940116644257147      -0.29587174447796616
-0.04851471689227521      -0.05725706781259607     0.0101083772335468       1.354727643258357E12     0.1362415456234181       -2.8261560044206653      -0.1865976009478993
-0.048759657532672064     -0.057253807844505934    0.009293319090256238     1.160655169166083E12     0.13394777818043657      -2.7900696969211567      -0.186099396386303
-0.048514716892275205     -0.054509197387549405    0.0101083772335468       1.400322086726768E12     -0.028608339782689535    -2.822767135633837       -0.08167655431197529
-0.04875965753267205      -0.05450593741945927     0.00929331909025621      1.1869056101022568E12    -0.027902302015992742    -2.7884011292797113      -0.08212355486853078
-0.048514716892275205     -0.05176132696250277     0.0101083772335468       1.4549640718265415E12    -0.19346527154464113     -2.821651666710124       0.017447985750057612
-0.048754589458496325     -0.05725054787641576     0.008479818490634504     1.1661238615742168E12    0.1321328733219453       -2.739758564468308       -0.18637428189796493
-0.048499512669748        -0.0517216157071306      0.00766787543468168      1.5156868588382683E12    -0.18337529775159725     -2.6757220018564376      0.020098191446481967
-0.048499512669748        -0.054479463249211144    0.007667875434681681     1.3706837865030034E12    -0.02697634713019948     -2.6750153632209175      -0.08056981451808977
-0.048754589458496325     -0.051734852792254676    0.00847981849063452      1.2252043969756165E12    -0.1866387415329282      -2.738729032567182       0.017860741606148596
-0.048754589458496325     -0.05449270033433522     0.00847981849063451      1.1977551581292686E12    -0.02738938416492096     -2.738890150796739       -0.08202370866407288
-0.048499512669748        -0.05723731079129168     0.00766787543468168      1.3038334440922378E12    0.12969550361005722      -2.6750160200274085      -0.185703943446332
-0.04875965753267206      -0.05174808987737872     0.009293319090256226     1.2248814315042466E12    -0.1900020661306095      -2.787372254185078       0.01697733970734048
-0.048499512669748        -0.04344538320562743     0.007667875434681681     7.831363342833717E11     -0.6527739787406889      -2.6689032819819603      0.38275248761950803
-0.048499512669748        -0.046204127372795153    0.007667875434681681     1.0635380415209724E12    -0.49581807847260156     -2.670453051414359       0.24637844703402026
-0.048754589458496304     -0.04346860144873633     0.008479818490632321     6.993078719406978E11     -0.662149450691654       -2.7379699920207035      0.3793349061189403
-0.048754589458496325     -0.04622734561590407     0.008479818490632353     9.139609526139248E11     -0.5032536263843577      -2.7376139620486444      0.24308791414999717
-0.048499512669748        -0.04896287153996288     0.00766787543468168      1.2842656028430137E12    -0.33935185147623764     -2.6727259580391842      0.12549368164301156
-0.04875458945849631      -0.04898608978307179     0.00847981849063238      1.0754973312539779E12    -0.3448474753487848      -2.7379810692690114      0.1223301973755331
-0.048759657532672036     -0.043491819691845235    0.009293319090254028     6.92419381606156E11      -0.6724127016298567      -2.7926520338893646      0.37878286012961915
-0.048759657532672064     -0.04625056385901299     0.00929331909025409      9.148937278763994E11     -0.5115769532833514      -2.790390204512847       0.24266291677722074
-0.048514716892275205     -0.04351503793495414     0.0101083772335468       8.429492895747789E11     -0.6835637315552971      -2.832949407587942       0.3810963496515449
-0.048514716892275205     -0.0490125639533199      0.0101083772335468       1.2525338506868218E12    -0.3579057366257067      -2.824173561126029       0.12479184594320442
-0.048759657532672064     -0.04899932686819586     0.009293319090255159     1.0485789588011969E12    -0.3513266655790706      -2.7882592197439457      0.12288399768860613
-0.0485147168922752       -0.04626380094413702     0.0101083772335468       1.0648046178442416E12    -0.521271889962592       -2.827939474751968       0.24600796724370017
-0.048499512669738        -0.0381431649117068      0.00766787543467168      3.130120636911336E11     -0.956041021402566       -2.668640618299109       0.7177659686198775
-0.04849951266974134      -0.039910571009680346    0.007667875434675014     2.9568570647838934E11    -0.8542017104945783      -2.667843181242251       0.5964952382666773
-0.04875458338242887      -0.03819984180662221     0.008478867716049884     2.3699607363285345E11    -0.9634444750271391      -2.740450525609381       0.7130217138640075
-0.048754586420463146     -0.03995200176076689     0.008479343103340566     2.4360421346535614E11    -0.8629709813103259      -2.7392471158967173      0.5918870668804356
-0.04849951266974467      -0.041677977107653884    0.0076678754346783465    5.066313452644624E11     -0.7531126962739523      -2.667930735803201       0.4848240779332207
-0.04875458945849741      -0.04170416171491155     0.008479818490631246     4.695943420562318E11     -0.7632477842808748      -2.738928697801861       0.4803519899166072
-0.0487596514566046       -0.03822602641387987     0.009292368315671588     1.854523683499616E11     -0.9741931915646231      -2.7987103692497355      0.7133184938701645
-0.04875965753266982      -0.03996294022419568     0.00929331909024962      2.560118555598484E11     -0.8750855150389845      -2.797100986881265       0.5923199302562208
-0.048514716892265206     -0.0382217187334798      0.0101083772335368       2.539956143020319E11     -0.9882871710150178      -2.8434201492201727      0.7186563086383485
-0.04851471689227187      -0.04175059820112936     0.010108377233543466     5.332200776636688E11     -0.7864073564771387      -2.8369935226712815      0.4836840350129119
-0.048759657532670926     -0.04172737995802046     0.009293319090251825     4.4004001906419226E11    -0.774383680885388       -2.795153444321613       0.48058524470913633
-0.048514716892268536     -0.03998615846730458     0.01010837723354013      3.256460341597832E11     -0.8879818362970455      -2.8404837698820242      0.5962040213418465
-0.02194908778754411      -0.0603934520802086      0.060095426615922515     3.108895879976608E12     0.9891303510617988       -5.965952557836742       -0.5566475370633576
-0.021216005879843233     -0.0622920453783423      0.06134316011669001      2.5520834393085312E12    1.3559722639923077       -6.0032172887052155      -0.7177020465809498
-0.021216005879840554     -0.059833628181012344    0.06134316011669157      2.927181025699327E12     0.9027591991715229       -6.011968253275554       -0.5224229024247479
-0.020480304092791092     -0.061732221479146046    0.06258927235034163      2.4133436355801533E12    1.274584596381284        -6.041926386255134       -0.6832321832585352
-0.02048030409279076      -0.064190638676476       0.06258927235033918      2.0239357786174316E12    1.7245949342609346       -6.0335366310512155      -0.8926958030171235
-0.019741982426390033     -0.06363081477727973     0.06383376331687333      1.8105532402816348E12    1.6481907509291633       -6.064939130712242       -0.8579807110109039
-0.019741982426386702     -0.0660892319746097      0.06383376331687         1.1836974434371973E12    2.0949983618676797       -6.056910584874748       -1.0816288063718789
-0.020480304092791418     -0.059273804281816084    0.06258927235034405      2.815605877487809E12     0.8106993941018424       -6.05169821832978        -0.48657024298013646
-0.01974198242639337      -0.061172397579949786    0.06383376331687668      2.2198373173382817E12    1.1875082755908561       -6.074349753420466       -0.6471342951301189
-0.0197419824263967       -0.05871398038261981     0.06383376331688         2.590272771588609E12     0.7129509358527575       -6.0851424529994205      -0.4490895587295235
-0.022090253392744327     -0.05853929740075689     0.05985445729791768      3.2580735374998555E12    0.6474752235777244       -5.962038348246981       -0.4152265449321472
-0.021357677983842128     -0.057979473501560644    0.06110250223915622      3.108603211708564E12     0.5527040813216895       -6.009710626695881       -0.37979273317790363
-0.02062248269559434      -0.057419649602364356    0.06234892591327818      3.0093419087084077E12    0.4522442858862499       -6.0510971747601925      -0.3427308966176583
-0.022231321078370364     -0.056685142721305176    0.0596134281551018       3.434992258466663E12     0.3052272008821464       -5.956687880707042       -0.278650510098589
-0.021499252168269516     -0.056125318822108916    0.06086178453680983      3.2987827724252427E12    0.20205606826035244      -6.006016742166029       -0.24200752122871144
-0.022372290844422226     -0.05483098804185345     0.0593723391874749       3.607332215592633E12     -0.03761371702493499     -5.949901155216928       -0.1469194325626828
-0.021499252168270165     -0.0530189564540783      0.06086178453680871      3.351108945021242E12     -0.386111944222023       -6.009983456290981       -0.01707625984512575
-0.020622482695594663     -0.05431328723433376     0.062348925913277634     3.0616924642126455E12    -0.1486590005082227      -6.057576707735635       -0.10977598591702065
-0.0197419824263967       -0.05560761801458921     0.06383376331687998      2.676381307010485E12     0.09931237554618774      -6.094134804825352       -0.2081109987118338
-0.02062248269559499      -0.051206924866303155    0.06234892591327707      3.1254986903976963E12    -0.751452243321507       -6.059939155307284       0.12275366873913146
-0.0197419824263967       -0.05250125564655862     0.06383376331688         2.730503044928597E12     -0.5162161411791939      -6.0990100712474895      0.03244230526137031
-0.019741982426396697     -0.04939489327852801     0.06383376331687998      2.8054992465106606E12    -1.1336346143233873      -6.099768252265837       0.2725703531900889
-0.02248663292356711      -0.062360830919639364    0.0591766222803309       2.8587118915116533E12    1.325209606570964        -5.922836163927873       -0.7002813060706596
-0.021755514520240153     -0.06426049903834471     0.060425487055779034     2.2882497613646587E12    1.686507538754638        -5.964919096115069       -0.8734185035297413
-0.02302275315468914      -0.06432820975907014     0.0582569524632358       2.573501694296925E12     1.640263588755019        -5.877851022816487       -0.8519222340184177
-0.0222935982557361       -0.06622895269834711     0.05950694851336455      1.758214225414708E12     1.9960175401918576       -5.924752156322404       -1.037142119418989
-0.023557448480910206     -0.06629558859850092     0.057336417164637214     1.9564657915283628E12    1.9342922976139643       -5.830997134502582       -1.011570320906632
-0.0210217762375616       -0.06616016715705005     0.061672730564108824     1.5504555744925986E12    2.0495862282764294       -6.000056639779791       -1.0604949479074044
-0.024398068742739133     -0.06343367877647235     0.05588245062065203      2.8953856130163687E12    1.4238212226869094       -5.7681257704421505      -0.7528217078600672
-0.025216671741357926     -0.06637295842436115     0.05445855008047291      2.0547126636605742E12    1.8380506939101984       -5.685087391540938       -0.9834577631591104
-0.026050254555248276     -0.06349583570295415     0.05300035599004049      2.9454985702723228E12    1.3529313785953914       -5.613054214157449       -0.7297028262222536
-0.025235122770220594     -0.060571768954443765    0.05442636205744937      3.438255216415704E12     0.9266183097798057       -5.698899315319315       -0.5256419378370056
-0.026880271134791165     -0.06061871298154715     0.051540039880390597     3.498988802569257E12     0.8810802253005356       -5.5346659457115575      -0.5075167323088998
-0.0260686105633546       -0.0577098591324152      0.05296815147502925      3.935115983973704E12     0.4426835588926537       -5.62331776913408        -0.3300310108374476
-0.026861952849655736     -0.06641990245146451     0.05157235768119882      2.0843606265615054E12    1.7345254474777216       -5.523824199050275       -0.9556934112857354
-0.027688498215607517     -0.0635275668306791      0.05010993604431918      2.991016057504534E12     1.2747578917751623       -5.44262920834373        -0.7069321504585862
-0.02849329180580365      -0.06643642067981104     0.04867783996681495      2.199146220006807E12     1.6237165583165327       -5.347207557030597       -0.9282772652865064
-0.023331761865893797     -0.0594989210976108      0.05772536633664877      3.4090146266353076E12    0.7969124373158933       -5.866352001120664       -0.4733572335162522
-0.023865627756766948     -0.06146629993704158     0.05680434121940215      3.1511644592447397E12    1.1208794666639563       -5.818173259382666       -0.6090858912179317
-0.02470493612449729      -0.05860439011501299     0.05534960795635101      3.651831746072341E12     0.614763506592845        -5.7521404048864415      -0.3978183914409488
-0.023612066173036007     -0.05579061173870736     0.05724220012422757      3.690126144641787E12     0.13986894299205663      -5.851946054697154       -0.2110577406706086
-0.023471962979251994     -0.05764476641815909     0.0574838131428437       3.5116932107929756E12    0.4686871377597267       -5.859867156883998       -0.33978500844460435
-0.02484417274601346      -0.05675023543556128     0.05510747088674568      3.7628505399704736E12    0.2999680349645862       -5.743084926002871       -0.2720949334288635
-0.02308484021926819      -0.052313802752662834    0.05815023316026935      3.626390600702743E12     -0.4885224481594418      -5.8973324028193765      0.0278411049985189
-0.022214868526023657     -0.05050177116488769     0.059641550589873        3.383588569472758E12     -0.8413500234876656      -5.961393895740312       0.16179191067724966
-0.021341166036256003     -0.04868973957711252     0.061130564046611185     3.1584281451884375E12    -1.2110196707182856      -6.0153287866034955      0.3057294722226806
-0.023794868429390364     -0.0497966174634722      0.056926606150665006     3.654121107359999E12     -0.9137377144233426      -5.836093479711747       0.2015697764435598
-0.02292796371905336      -0.047984585875697046    0.05841979566053851      3.358411294117465E12     -1.2708946378827024      -5.904134164479562       0.3396282150834643
-0.024502375474788753     -0.04727943217428155     0.0557014581586619       3.5844900004842617E12    -1.3132595158166378      -5.766184385894037       0.37426658177243993
-0.024320218469899176     -0.05327342644951675     0.05601745181372449      3.709523341307727E12     -0.29790649977525063     -5.7922035375549275      -0.039481272696015146
-0.02502584960203856      -0.0507562411603261      0.05479118252082262      3.71632049152912E12      -0.7099884776719521      -5.72379084970262        0.13106332916241753
-0.025547927964893847     -0.054233050146370664    0.05388008029294508      3.779048230787129E12     -0.12467411943552155     -5.676168644115968       -0.10370253504087831
-0.019741982426393367     -0.04546470473413347     0.06383376331687665      2.1322299174181375E12    -1.8944057426690801      -6.090148224161015       0.5954650291430754
-0.021341166036255348     -0.044759551032718       0.06113056404660931      2.4588094607340205E12    -1.9309717084449156      -6.002558855825589       0.6271892331044285
-0.01974198242639003      -0.04153451618973893     0.06383376331687332      1.5292936112727332E12    -2.6099738792539644      -6.076949399053546       0.9633417543594973
-0.02134116603625469      -0.04082936248832346     0.061130564046607425     1.827357496291507E12     -2.6057207544107372      -5.986210128045035       0.993631043249612
-0.019741982426386702     -0.0376043276453444      0.06383376331687         1.2195661549881516E12    -3.28033902407804        -6.060171776943432       1.3762005288393553
-0.022927963719055377     -0.044054397331302515    0.058419795660538065     2.559285864761943E12     -1.950027584990269       -5.88821433102857        0.6596530608939737
-0.03402589848881872      -0.06632962429826178     0.03860622638981785      1.8290358692439053E12    1.2553894744822671       -4.684033879576737       -0.8624624704713736
-0.032200314321971416     -0.06631406738501108     0.041974364551011244     1.940184356508224E12     1.3616036201295245       -4.911674438827147       -0.8767882909384679
-0.03329710056009055      -0.06320158445529642     0.03995627316511136      2.5660555007400674E12    0.9581560803937804       -4.780034352165929       -0.6319067310474845
-0.0314640676310715       -0.06321160539559595     0.04332001691669889      2.725937891432236E12     1.0408082288314129       -5.006071491159555       -0.6446806449317302
-0.030356112094299722     -0.06634966617886082     0.045331569076676945     2.0804146414382896E12    1.4843793147409463       -5.132732331311765       -0.8987265558768454
-0.029612416641228056     -0.06327278204299593     0.046672827032758706     2.8749301197426313E12    1.1400219262332096       -5.225525963387392       -0.6650670032872591
-0.032565264274899766     -0.060073544612331053    0.041304659889689094     3.060324619460555E12     0.6251075759892214       -4.87407838548916        -0.42325124108648354
-0.030724782583708976     -0.06010914340618083     0.04466400923167074      3.2322575145456074E12    0.6841977272172288       -5.098512104226003       -0.4344732483878806
-0.031830389633246386     -0.0569455047693657      0.04265138656355106      3.522916839178486E12     0.25624396126859         -4.966165979546428       -0.23649600058837075
-0.028812440437810467     -0.060363928193863985    0.048107676527896756     3.382672383715473E12     0.7809348844382953       -5.321716493417171       -0.46846468335123975
-0.028009030743772655     -0.057455074344732036    0.04954053378160201      3.8434728805123486E12    0.3771288427101251       -5.4145221095016405      -0.29379206009345427
-0.029929623767069927     -0.05720028955704888     0.04610161214444262      3.7056604135147783E12    0.3149823101687706       -5.195471512972425       -0.26261372334376204
-0.031143366534992507     -0.05375681043139397     0.04390392191010266      3.4426419897843516E12    -0.14557343743038165     -5.049231155081957       -0.04839725704112784
-0.029235392881482053     -0.05401159521907715     0.04735007773875441      3.6028618610927417E12    -0.12375956529158325     -5.276369261902758       -0.0713361984512173
-0.02730759207085079      -0.0542663800067603      0.050784929623673994     3.734350163460534E12     -0.09853750951161089     -5.493252431826781       -0.09933575385560772
-0.030453723256724335     -0.050568116093422225    0.04515499213951263      3.4475674318333E12       -0.5708504297833451      -5.130574859714491       0.14766651524989022
-0.028538541815879892     -0.0508229008811054      0.04859707821592458      3.611093157592314E12     -0.5859610344059288      -5.355545539930096       0.12790635518510257
-0.029761459798441886     -0.04737942175545048     0.04640459725178099      3.5182887543473687E12    -1.0195870157903004      -5.21019709344403        0.3516953162846835
-0.02627152770512612      -0.047312762034671205    0.05261187337351411      3.5977697760627295E12    -1.2087079975195463      -5.593115228746107       0.3611507904082931
-0.02679025777018572      -0.050789571020715754    0.05169881479361319      3.65503908718428E12      -0.644644413561451       -5.5457981649840615      0.1266888240729794
-0.028024555813010495     -0.04734609189506084     0.049512919737887136     3.5628810308075176E12    -1.1108171641774336      -5.40778613126277        0.3536270352457076
-0.026207795522914384     -0.03758166108350667     0.05272434496234215      2.0197860811445833E12    -2.606670206399754       -5.569600552817609       1.242350552473065
-0.025640878961918474     -0.04081425144709831     0.05371763954747478      2.2504176634852803E12    -2.223560793204496       -5.640862462693642       0.9084869882524591
-0.02407613111516751      -0.0375817533779783      0.05644124481019075      1.8414230638957158E12    -2.847157918769312       -5.77300964126257        1.2806915947016602
-0.023502825811301097     -0.040818075354640417    0.05743098199521077      1.961945610329558E12     -2.422606493712681       -5.833478968904182       0.9479212074709515
-0.02507240561254326      -0.044046841810689935    0.05471001061291469      2.7773302247343657E12    -1.7924238963434567      -5.706390407052451       0.6191256646855842
-0.021920860082991614     -0.03758930889859087     0.06014438426170002      1.5982505865754292E12    -3.0717141913287405      -5.936533382637844       1.3253082534904237
-0.02683639054376656      -0.04408017167107959     0.05161739568370519      2.8484487439141133E12    -1.6572616480247282      -5.527648371336707       0.6014585045022115
-0.027399696594027703     -0.04084758130748794     0.05062199447420355      2.2534968825878E12       -2.057787814864129       -5.4564475484100825      0.8862684592498604
-0.028584251352536876     -0.044113501531469215    0.0485154119040165       2.8040240529713457E12    -1.5287600846609783      -5.336646395285556       0.5893833805204001
-0.03924196273861451      -0.06615968373954978     0.028723965609407893     1.470094525390584E12     0.9906094183428212       -4.013431231866762       -0.7977521828717219
-0.037521489201596474     -0.06624086503730041     0.03202726493033518      1.5357464725314092E12    1.0717474786511993       -4.239455270679611       -0.824666123477908
-0.03869428797740436      -0.06343117123514158     0.029780299168901087     2.088554447625518E12     0.7784162411200137       -4.085539737074728       -0.608228314473619
-0.03696795841211015      -0.0635000853104689      0.03308072673568971      2.1914193422244404E12    0.8422565411879349       -4.31227327059965        -0.628539618867682
-0.03578280111833121      -0.0662975118902044      0.0353213518571385       1.6555225523661719E12    1.1600074973643477       -4.462989486582934       -0.8462362193444584
-0.035223414300568696     -0.06354446494094958     0.036371941908354355     2.318558847084669E12     0.9132187996606266       -4.536516981215048       -0.6435070785221094
-0.038144760413786664     -0.06070265873073338     0.030835681634532784     2.4968919140025103E12    0.5473626246008825       -4.157780418860229       -0.4338508571839394
-0.03641257482021627      -0.0607593055836374      0.03413323744718275      2.599936109108704E12     0.5939051644283467       -4.385223447097223       -0.4475595253658793
-0.03759338004776142      -0.0579741462263252      0.03189011300630299      2.89017311261233E12      0.2974485687854276       -4.230153277223263       -0.274619811002683
-0.0344996550435208       -0.06041642509798423     0.037724697739207044     2.8156102070427793E12    0.61156781576432         -4.631785945246987       -0.4350732237521261
-0.033772857430010295     -0.057288385255018864    0.03907579351934394      3.2832494238794336E12    0.2741017215519409       -4.725098470012964       -0.24853961844503078
-0.03569385423484865      -0.05763126574067204     0.035488702333594586     3.101395483926751E12     0.28783659072422013      -4.479760902571909       -0.2612475552498016
-0.040953886671117795     -0.05981868474623094     0.025392535792492413     2.5752350121053145E12    0.4098088616431821       -3.779265201181503       -0.36127235838449384
-0.04179158406852601      -0.06183587385864505     0.023745734582363634     2.2076219178230835E12    0.556714930848586        -3.6679010018268294      -0.47137369380344163
-0.040385293692954266     -0.06193235107733724     0.026504043062211505     2.260448630168232E12     0.5997657083363593       -3.8579432357464793      -0.4924316252190737
-0.04122616798599838      -0.0639611566446333      0.024858480330219562     1.9189162335801697E12    0.7401481430971979       -3.7463230228891935      -0.6141447509781185
-0.04262477300543674      -0.06385306297105914     0.02209672244057124      1.900763829049526E12     0.6897657860379723       -3.5579486286263156      -0.5853528180183419
-0.042062533818544995     -0.06598996221192933     0.023210706666563996     1.3568426588659404E12    0.8666753638420188       -3.6361146361860666      -0.7397356655331161
-0.04345345348184998      -0.06587025208347326     0.020445499367115223     1.3872876279537368E12    0.808961427211341        -3.449408081579961       -0.7032097310291949
-0.039814652382119835     -0.06404601740844351     0.027614519667849998     1.9754766575815522E12    0.7933658939029057       -3.935998579308232       -0.6379249000481496
-0.04065870357079985      -0.06608643943062154     0.025970195413994895     1.396187024939885E12     0.9272246942191789       -3.8241223529483337      -0.7712498161472916
-0.039841515189931266     -0.05920383857292903     0.027562356852789797     2.6815799125816235E12    0.37678218323015517      -3.9308125825590103      -0.3338257125792485
-0.03926892575000327      -0.06131750490403533     0.028671843342885747     2.383222531377445E12     0.5757775427383999       -4.008487505318482       -0.46386000952918566
-0.038721346315479147     -0.0585889923996271      0.029728215924059987     2.75360902458463E12      0.3393287522775703       -4.0811086079062635      -0.3049415301186449
-0.04642909983904214      -0.06556190991369742     0.01442188033959485      1.0629712201117089E12    0.6907326585542678       -3.070168029434983       -0.6203109952286329
-0.04544389660114455      -0.06566766372038435     0.016432889814827538     1.164234332520056E12     0.7289109513494341       -3.192012874646164       -0.6484077414916609
-0.046342449818727725     -0.06435224945948712     0.014599425351115143     1.4791955421277332E12    0.6169548054998802       -3.077697670742591       -0.5482897817156683
-0.04535665204805841      -0.0644565167244599      0.016610169361211385     1.5651112962832874E12    0.6521028977120815       -3.200178810375408       -0.5741215013547907
-0.04445201448208049      -0.06577044444364295     0.018440762824000995     1.2297330902250195E12    0.7683205409017917       -3.3184262253611565      -0.6760406534251816
-0.04436417539622263      -0.06455781090600435     0.018617776905248393     1.6957727775918318E12    0.6884822866814743       -3.3272284555120364      -0.5994893866644057
-0.04625574785123118      -0.06314258900527679     0.014776946184911849     1.7007948994330469E12    0.5416495379939879       -3.0850157179187736      -0.4806826498214564
-0.04526935554779015      -0.06324536972853545     0.016787424729871644     1.7920554210247703E12    0.5737674296232242       -3.208133151973227       -0.5042493428366732
-0.046168993936552515     -0.061932928551066496    0.014954442840984968     1.9097617711427227E12    0.46481685603659084      -3.0921221709635303      -0.41748959954599735