% Model:              wentai_test_m42.mph
% Version:            COMSOL 5.5.0.292
% Date:               Jan 3 2022, 17:44
% Dimension:          3
% Nodes:              22177
% Expressions:        4
% Description:        表面
% X                       Y                        Z                        Color                    DeformX                  DeformY                  DeformZ
-0.04851473881663425      -0.06529392956856216     0.010108330297943599     3.723353412550164E11     0.43151186890827503      -1.9920610020153455      -0.39830695748160017
-0.048514721764346014     -0.06353093245825568     0.010108366803403778     5.744823241164314E11     0.35835197487936254      -1.9887874199512745      -0.32845793711722315
-0.0487596548365826       -0.06529260895154608     0.009293285712236105     3.2043235833277313E11    0.4253965993952973       -1.9624127001915364      -0.39625052520528226
-0.04875965131906641      -0.06353012398785107     0.009293312779510773     5.13419380211257E11      0.3529311025027748       -1.9598610375002758      -0.32665612864166343
-0.04851471445622633      -0.061767935347949186    0.010108382448604845     7.301637181660066E11     0.2847677082793849       -1.9855246825669846      -0.2650624872342745
-0.04875965754571876      -0.061767639024156044    0.009293318986526324     6.293016415384531E11     0.28004123303918693      -1.957320219488796       -0.263515302559473
-0.04851471689227521      -0.060004938237642705    0.0101083772335468       8.961340962112372E11     0.2107590691083421       -1.9822727898624752      -0.20812060783275435
-0.04875457941268432      -0.0652923126277529      0.008479800673698218     3.0406668973527856E11    0.4199093667214563       -1.923127857187275       -0.3954423014121362
-0.04875458942994017      -0.06353033981066938     0.008479818302787373     4.7203778057023755E11    0.34813826696532363      -1.9212981138688248      -0.3261025286492757
-0.0484995125449394       -0.06529304059718265     0.007667875182329935     3.449733193581745E11     0.4150501708867521       -1.874206473002562       -0.3958822861021623
-0.048499512669747995     -0.05999515833337221     0.007667875434681681     8.37750490643807E11      0.20064817797522702      -1.8730067793779408      -0.20671293665985546
-0.04849951262814513      -0.061761119087975706    0.007667875350564432     6.554692080663655E11     0.27172234360543573      -1.872947871999485       -0.262914395282782
-0.04875458945849632      -0.05999841830146241     0.008479818490634556     7.779311526440552E11     0.20368327121063376      -1.9193861603337339      -0.20664099733358166
-0.048754589444218246     -0.06176437905606591     0.008479818396710965     5.900152124326941E11     0.27571418641782885      -1.9201127344746147      -0.26294426739584076
-0.04849951258654226      -0.06352707984257917     0.007667875266447183     5.095562306768219E11     0.34318967457594407      -1.8733477698743584      -0.32597084509688423
-0.04875965753267205      -0.060001678269552564    0.009293319090256262     7.864763689019692E11     0.20705356825500545      -1.9558081638285787      -0.20711022105788127
-0.04851471689227521      -0.05725706781259607     0.0101083772335468       9.483093496658223E11     0.09536908184718786      -1.9783092018097488      -0.13061832063709777
-0.048759657532672064     -0.057253807844505934    0.009293319090256238     8.124586178886726E11     0.09376344463926893      -1.9530487865768442      -0.13026957744450351
-0.048514716892275205     -0.054509197387549405    0.0101083772335468       9.80225460072283E11      -0.020025837863048866    -1.9759369936601665      -0.057173588040541075
-0.04875965753267205      -0.05450593741945927     0.00929331909025621      8.308339265314729E11     -0.019531611425550092    -1.951880789228253       -0.05748648843022563
-0.048514716892275205     -0.05176132696250277     0.0101083772335468       1.018474849616442E12     -0.13542569002236804     -1.9751561654137284      0.012213589956915738
-0.048754589458496325     -0.05725054787641576     0.008479818490634504     8.162867025714685E11     0.09249301124031493      -1.9178309938829907      -0.1304619973024827
-0.048499512669748        -0.0517216157071306      0.00766787543468168      1.0609808004979801E12    -0.12836270836831656     -1.8730054000833198      0.014068733943334482
-0.048499512669748        -0.054479463249211144    0.007667875434681681     9.594786499290293E11     -0.018883443003551055    -1.8725107530391         -0.056398870185166844
-0.048754589458496325     -0.051734852792254676    0.00847981849063452      8.576430773257844E11     -0.13064711901496961     -1.917110321552003       0.012502519055717982
-0.048754589458496325     -0.05449270033433522     0.00847981849063451      8.384286101459436E11     -0.019172568928868528    -1.9172231043129502      -0.057416596087101354
-0.048499512669748        -0.05723731079129168     0.00766787543468168      9.126834102721418E11     0.0907868524442968       -1.8725112128039734      -0.12999276038623014
-0.04875965753267206      -0.05174808987737872     0.009293319090256226     8.574170014956484E11     -0.13300144623298676     -1.9511605766621392      0.011884137726911733
-0.048499512669748        -0.04344538320562743     0.007667875434681681     5.4819543364354474E11    -0.45694178484998066     -1.8682322961735596      0.26792674109669923
-0.048499512669748        -0.046204127372795153    0.007667875434681681     7.444766285820786E11     -0.34707265473275417     -1.8693171347757196      0.17246491274985642
-0.048754589458496304     -0.04346860144873633     0.008479818490632321     4.895155100408056E11     -0.46350461521260256     -1.916578993169089       0.26553443404747035
-0.048754589458496325     -0.04622734561590407     0.008479818490632353     6.397726664141844E11     -0.3522775382688063      -1.9163297721889956      0.17016153973214365
-0.048499512669748        -0.04896287153996288     0.00766787543468168      8.989859214069446E11     -0.2375462959055328      -1.870908169412306       0.08784557703206816
-0.04875458945849631      -0.04898608978307179     0.00847981849063238      7.528481313880215E11     -0.24139323261501514     -1.916586747243328       0.08563113804587152
-0.048759657532672036     -0.043491819691845235    0.009293319090254028     4.8469356680903973E11    -0.4706888908658424      -1.9548564224520038      0.2651480018551754
-0.048759657532672064     -0.04625056385901299     0.00929331909025409      6.404256090961919E11     -0.35810386709547637     -1.953273141889656       0.16986404157136487
-0.048514716892275205     -0.04351503793495414     0.0101083772335468       5.900645023174855E11     -0.47849461180970027     -1.9830645840223033      0.2667674445198145
-0.048514716892275205     -0.0490125639533199      0.0101083772335468       8.767736949099043E11     -0.2505340155052125      -1.9769214915034057      0.08735429204240092
-0.048759657532672064     -0.04899932686819586     0.009293319090255159     7.340052706829335E11     -0.2459286657744318      -1.9517814525526407      0.08601879826473109
-0.0485147168922752       -0.04626380094413702     0.0101083772335468       7.453632320052864E11     -0.36489032276765654     -1.9795576310395973      0.17220557689670052
-0.048499512669738        -0.0381431649117068      0.00766787543467168      2.1910844443803568E11    -0.669228714577435       -1.868048431595527       0.50243617764274
-0.04849951266974134      -0.039910571009680346    0.007667875434675014     2.069799943996848E11     -0.5979411969874195      -1.8674902256561217      0.41754666645125715
-0.04875458338242887      -0.03819984180662221     0.008478867716049884     1.658972514321824E11     -0.6744111321124786      -1.918315366679895       0.4991151993153905
-0.048754586420463146     -0.03995200176076689     0.008479343103340566     1.7052294931409128E11    -0.6040796865556665      -1.9174729798816028      0.4143209464825967
-0.04849951266974467      -0.041677977107653884    0.0076678754346783465    3.546419414556492E11     -0.527178887078268       -1.867551513848799       0.3393768542692435
-0.04875458945849741      -0.04170416171491155     0.008479818490631246     3.287160392255653E11     -0.5342734486797183      -1.9172500872153933      0.33624639265927203
-0.0487596514566046       -0.03822602641387987     0.009292368315671588     1.298166577587015E11     -0.6819352336850025      -1.9590972572013656      0.49932294531953264
-0.04875965753266982      -0.03996294022419568     0.00929331909024962      1.7920829877420255E11    -0.6125598601613937      -1.9579706895441866      0.4146239508454277
-0.048514716892265206     -0.0382217187334798      0.0101083772335368       1.777969298932426E11     -0.6918010192950068      -1.9903941031599393      0.5030594156551663
-0.04851471689227187      -0.04175059820112936     0.010108377233543466     3.7325405412043317E11    -0.5504851492088616      -1.9858954645787203      0.33857882422547847
-0.048759657532670926     -0.04172737995802046     0.009293319090251825     3.080280131437731E11     -0.542068576298981       -1.9566074097533646      0.33640967101390823
-0.048514716892268536     -0.03998615846730458     0.01010837723354013      2.2795222376173682E11    -0.6215872850372971      -1.9883386376245986      0.417342814603929
-0.02194908778754411      -0.0603934520802086      0.060095426615922515     2.1762271145455007E12    0.6923912451162735       -4.1761667877330835      -0.3896532757490031
-0.021216005879843233     -0.0622920453783423      0.06134316011669001      1.7864584063337368E12    0.9491805839944811       -4.2022520993229495      -0.5023914323341245
-0.021216005879840554     -0.059833628181012344    0.06134316011669157      2.049026716636101E12     0.6319314388262186       -4.208377774517677       -0.365696031515596
-0.020480304092791092     -0.061732221479146046    0.06258927235034163      1.6893405437888533E12    0.8922092166977216       -4.229348467588657       -0.47826252802199093
-0.02048030409279076      -0.064190638676476       0.06258927235033918      1.4167550440927393E12    1.2072164530087235       -4.223475638950189       -0.6248870617556314
-0.019741982426390033     -0.06363081477727973     0.06383376331687333      1.26738726735806E12      1.1537335247052591       -4.245457388697011       -0.6005864973647711
-0.019741982426386702     -0.0660892319746097      0.06383376331687         8.285882098562223E11     1.4664988521590008       -4.239837406614804       -0.7571401640135235
-0.020480304092791418     -0.059273804281816084    0.06258927235034405      1.9709241129406782E12    0.5674895753132736       -4.236188750035948       -0.3405991699186006
-0.01974198242639337      -0.061172397579949786    0.06383376331687668      1.5538861211102344E12    0.8312557921780718       -4.252044824588042       -0.45299400634626896
-0.0197419824263967       -0.05871398038261981     0.06383376331688         1.8131909389158716E12    0.4990656545774388       -4.259599714287898       -0.314362690958017
-0.022090253392744327     -0.05853929740075689     0.05985445729791768      2.280651474745968E12     0.45323265603414065      -4.173426841021909       -0.2906585813234023
-0.021357677983842128     -0.057979473501560644    0.06110250223915622      2.1760222467620337E12    0.38689285649188426      -4.206797435912817       -0.2658549131096677
-0.02062248269559434      -0.057419649602364356    0.06234892591327818      2.1065393347084497E12    0.3165709997267377       -4.235768019537401       -0.2399116275323448
-0.022231321078370364     -0.056685142721305176    0.0596134281551018       2.404494579343706E12     0.21365904030424854      -4.169681513746257       -0.19505535700391907
-0.021499252168269516     -0.056125318822108916    0.06086178453680983      2.309147939178465E12     0.14143924750979053      -4.20421171674348        -0.169405264809857
-0.022372290844422226     -0.05483098804185345     0.0593723391874749       2.5251325492549194E12    -0.02632960207340284     -4.164930805906128       -0.10284360279055346
-0.021499252168270165     -0.0530189564540783      0.06086178453680871      2.3457762599733755E12    -0.27027836096001684     -4.2069884166284695      -0.01195338194616198
-0.020622482695594663     -0.05431328723433376     0.062348925913277634     2.143184723539311E12     -0.10406130047572835     -4.2403036926166084      -0.07684319015040325
-0.0197419824263967       -0.05560761801458921     0.06383376331687998      1.8734669136738325E12    0.06951866264231399      -4.265894360561319       -0.14567769905782885
-0.02062248269559499      -0.051206924866303155    0.06234892591327707      2.1878490818414307E12    -0.5260165701704722      -4.241957405915057       0.08592756800054177
-0.0197419824263967       -0.05250125564655862     0.06383376331688         1.9113521301941462E12    -0.36135129878508865     -4.269307047053983       0.02270961361136275
-0.019741982426396697     -0.04939489327852801     0.06383376331687998      1.9638494712697803E12    -0.7935442297047689      -4.26983777376589        0.19079924704955784
-0.02248663292356711      -0.062360830919639364    0.0591766222803309       2.0010983227313594E12    0.9276467238243288       -4.145985312018091       -0.4901969139888993
-0.021755514520240153     -0.06426049903834471     0.060425487055779034     1.6017748318909019E12    1.1805552761822917       -4.175443364528824       -0.6113929521276206
-0.02302275315468914      -0.06432820975907014     0.0582569524632358       1.801451184807329E12     1.1481845112145508       -4.114495713262222       -0.5963455634834024
-0.0222935982557361       -0.06622895269834711     0.05950694851336455      1.2307499569668906E12    1.397212277052269        -4.1473265066938225      -0.7259994831757233
-0.023557448480910206     -0.06629558859850092     0.057336417164637214     1.3695260531457288E12    1.35400460728694         -4.081697991465476       -0.7080992242325124
-0.0210217762375616       -0.06616016715705005     0.061672730564108824     1.0853189014200535E12    1.4347103586762895       -4.200039645076931       -0.742346463102727
-0.024398068742739133     -0.06343367877647235     0.05588245062065203      2.0267699277597815E12    0.996674855077516        -4.037688036652902       -0.5269751952218593
-0.025216671741357926     -0.06637295842436115     0.05445855008047291      1.438298863584521E12     1.2866354847529757       -3.979561171462498       -0.6884204338258745
-0.026050254555248276     -0.06349583570295415     0.05300035599004049      2.061848997813239E12     0.9470519642602748       -3.9291379473277948      -0.5107919780890391
-0.025235122770220594     -0.060571768954443765    0.05442636205744937      2.4067786498955796E12    0.6486328162760729       -3.989229518099445       -0.36794935631276604
-0.026880271134791165     -0.06061871298154715     0.051540039880390597     2.4492921601740386E12    0.6167561571755544       -3.874266159452209       -0.35526171245376337
-0.0260686105633546       -0.0577098591324152      0.05296815147502925      2.7545811869641875E12    0.3098784908826109       -3.9363224358051063      -0.2310217075052325
-0.026861952849655736     -0.06641990245146451     0.05157235768119882      1.4590524375959526E12    1.214167812311806        -3.866676936796034       -0.6689853875299363
-0.027688498215607517     -0.0635275668306791      0.05010993604431918      2.0937112388503132E12    0.8923305235358279       -3.809840443339202       -0.49485250506691847
-0.02849329180580365      -0.06643642067981104     0.04867783996681495      1.5394023529430232E12    1.1366015899634305       -3.7430452874660847      -0.6497940853446975
-0.023331761865893797     -0.0594989210976108      0.05772536633664877      2.386310237068253E12     0.55783870559361         -4.106446398079873       -0.33135006330852607
-0.023865627756766948     -0.06146629993704158     0.05680434121940215      2.205815120008134E12     0.7846156259944796       -4.072721278886826       -0.42636012363788933
-0.02470493612449729      -0.05860439011501299     0.05534960795635101      2.556282220562114E12     0.43033445418238914      -4.026498280770547       -0.2784728738939358
-0.023612066173036007     -0.05579061173870736     0.05724220012422757      2.5830882995486826E12    0.09790825986841481      -4.096362235589629       -0.14774041843937666
-0.023471962979251994     -0.05764476641815909     0.0574838131428437       2.4581852459344326E12    0.32808099605489205      -4.10190700711699        -0.23784950582089256
-0.02484417274601346      -0.05675023543556128     0.05510747088674568      2.633995376242033E12     0.20997762418708601      -4.020159445555954       -0.19046645334426962
-0.02308484021926819      -0.052313802752662834    0.05815023316026935      2.5384734188296133E12    -0.341965713656119       -4.128132679252595       0.019488773418958064
-0.022214868526023657     -0.05050177116488769     0.059641550589873        2.368511997080348E12     -0.5889450162326239      -4.172975724265973       0.1132543373340585
-0.021341166036256003     -0.04868973957711252     0.061130564046611185     2.2108997001868022E12    -0.8477137691329699      -4.210730147843595       0.21401063035147125
-0.023794868429390364     -0.0497966174634722      0.056926606150665006     2.557884773484861E12     -0.6396163998410664      -4.085265433105889       0.141098843347847
-0.02292796371905336      -0.047984585875697046    0.05841979566053851      2.3508879043516855E12    -0.889626246107462       -4.132893912410301       0.23773975033365646
-0.024502375474788753     -0.04727943217428155     0.0557014581586619       2.5091429987130347E12    -0.9192816606282453      -4.036329067466007       0.2619866069961134
-0.024320218469899176     -0.05327342644951675     0.05601745181372449      2.5966663372129463E12    -0.20853454986318196     -4.054542473618048       -0.027636890938594724
-0.02502584960203856      -0.0507562411603261      0.05479118252082262      2.6014243423749336E12    -0.49699193419701004     -4.0066535921532935      0.09174433028156465
-0.025547927964893847     -0.054233050146370664    0.05388008029294508      2.6453337598149756E12    -0.08727188369339131     -3.973318048266327       -0.07259177455221733
-0.019741982426393367     -0.04546470473413347     0.06383376331687665      1.4925609412221313E12    -1.3260840192003136      -4.263103754096287       0.4168255200662704
-0.021341166036255348     -0.044759551032718       0.06113056404660931      1.7211666214022021E12    -1.3516801952137436      -4.201791196304117       0.4390324628190223
-0.01974198242639003      -0.04153451618973893     0.06383376331687332      1.0705055272092017E12    -1.8269817144841247      -4.253864576526488       0.6743392275467974
-0.02134116603625469      -0.04082936248832346     0.061130564046607425     1.2791502465999E12       -1.824004527082784       -4.1903470868644455      0.6955417297503881
-0.019741982426386702     -0.0376043276453444      0.06383376331687         8.536963079702943E11     -2.2962373155562026      -4.242120241056496       0.9633403694911394
-0.022927963719055377     -0.044054397331302515    0.058419795660538065     1.791500104182484E12     -1.3650193087734648      -4.121750029000949       0.46175714225204606
-0.03402589848881872      -0.06632962429826178     0.03860622638981785      1.2803251075816174E12    0.8787726314880068       -3.278823713559961       -0.603723729002272
-0.032200314321971416     -0.06631406738501108     0.041974364551011244     1.358129048613019E12     0.9531225333806007       -3.4381721049287615      -0.6137518033243218
-0.03329710056009055      -0.06320158445529642     0.03995627316511136      1.7962388493125112E12    0.6707092557556505       -3.3460240443264064      -0.4423347115124733
-0.0314640676310715       -0.06321160539559595     0.04332001691669889      1.908156522719632E12     0.7285657596117759       -3.504250041516051       -0.45127645122709714
-0.030356112094299722     -0.06634966617886082     0.045331569076676945     1.4562902479953464E12    1.039065519539075        -3.592912629564136       -0.6291085887717968
-0.029612416641228056     -0.06327278204299593     0.046672827032758706     2.0124510824661206E12    0.7980153477337821       -3.6578681719722685      -0.46554690206714644
-0.032565264274899766     -0.060073544612331053    0.041304659889689094     2.142227232199811E12     0.43757530281848717      -3.4118548676075595      -0.29627586863673555
-0.030724782583708976     -0.06010914340618083     0.04466400923167074      2.2625802586773916E12    0.4789384086381443       -3.5689584706180475      -0.3041312737439336
-0.031830389633246386     -0.0569455047693657      0.04265138656355106      2.466041785799069E12     0.17937077267651683      -3.4763161834034215      -0.1655472003750589
-0.028812440437810467     -0.060363928193863985    0.048107676527896756     2.3678706670294336E12    0.5466544186337687       -3.7252015429467966      -0.3279252782027142
-0.028009030743772655     -0.057455074344732036    0.04954053378160201      2.6904310145870312E12    0.2639901896010845       -3.7901654741612134      -0.2056544420029059
-0.029929623767069927     -0.05720028955704888     0.04610161214444262      2.593962287751412E12     0.2204876168657199       -3.6368300566939857      -0.1838296062928481
-0.031143366534992507     -0.05375681043139397     0.04390392191010266      2.4098493912727295E12    -0.10190140623511472     -3.534461806238226       -0.033878079979620015
-0.029235392881482053     -0.05401159521907715     0.04735007773875441      2.5220033011143E12       -0.08663169576243347     -3.6934584809060835      -0.04993533895685155
-0.02730759207085079      -0.0542663800067603      0.050784929623673994     2.614045112711091E12     -0.06897625674359062     -3.845276699750605       -0.06953502772635176
-0.030453723256724335     -0.050568116093422225    0.04515499213951263      2.4132972007167705E12    -0.3995953006939162      -3.591402399441659       0.10336656053275181
-0.028538541815879892     -0.0508229008811054      0.04859707821592458      2.527765208672596E12     -0.4101727239377567      -3.748881875486811       0.08953444849607792
-0.029761459798441886     -0.04737942175545048     0.04640459725178099      2.4628021264585254E12    -0.7137109106998877      -3.6471379630137224      0.24618672116205656
-0.02627152770512612      -0.047312762034671205    0.05261187337351411      2.518438841618493E12     -0.8460955978526146      -3.915180657544531       0.2528055530449202
-0.02679025777018572      -0.050789571020715754    0.05169881479361319      2.5585273593651934E12    -0.4512510893342943      -3.8820587129346955      0.08868217671890082
-0.028024555813010495     -0.04734609189506084     0.049512919737887136     2.4940167199591577E12    -0.7775720145431618      -3.785450289393769       0.24753892443356787
-0.026207795522914384     -0.03758166108350667     0.05272434496234215      1.4138502559818562E12    -1.8246691434325941      -3.8987203844016167      0.8696453860807442
-0.025640878961918474     -0.04081425144709831     0.05371763954747478      1.5752923634801843E12    -1.5564925543754136      -3.9486037212826988      0.6359408912819141
-0.02407613111516751      -0.0375817533779783      0.05644124481019075      1.2889961439680085E12    -1.9930105420005826      -4.041106746217271       0.8964841156263605
-0.023502825811301097     -0.040818075354640417    0.05743098199521077      1.373361926383412E12     -1.6958245446591584      -4.083435275538919       0.6635448447205601
-0.02507240561254326      -0.044046841810689935    0.05471001061291469      1.9441311560794536E12    -1.2546967267739642      -3.9944732823041624      0.43338796492037057
-0.021920860082991614     -0.03758930889859087     0.06014438426170002      1.118775409934173E12     -2.150199932708452       -4.1555733651022315      0.9277157767631589
-0.02683639054376656      -0.04408017167107959     0.05161739568370519      1.9939141194815195E12    -1.160083152997279       -3.869353857387636       0.4210209527983671
-0.027399696594027703     -0.04084758130748794     0.05062199447420355      1.5774478168611165E12    -1.440451469597674       -3.819513281371121       0.6203879209891002
-0.028584251352536876     -0.044113501531469215    0.0485154119040165       1.9628168358468223E12    -1.070132058686772       -3.7356524742418236      0.4125683660162045
-0.03924196273861451      -0.06615968373954978     0.028723965609407893     1.0290661670851813E12    0.6934265923373011       -2.809401860474573       -0.5584265277058411
-0.037521489201596474     -0.06624086503730041     0.03202726493033518      1.0750225300415953E12    0.7502232345087569       -2.9676186875388435      -0.5772662861200908
-0.03869428797740436      -0.06343117123514158     0.029780299168901087     1.4619881123760483E12    0.5448913683745966       -2.8598778140859347      -0.42575981991494527
-0.03696795841211015      -0.0635000853104689      0.03308072673568971      1.5339935385383225E12    0.5895795783852724       -3.0185912874481864      -0.4399777329838292
-0.03578280111833121      -0.0662975118902044      0.0353213518571385       1.1588657858566787E12    0.8120052475589921       -3.124092638567306       -0.592365353218901
-0.035223414300568696     -0.06354446494094958     0.036371941908354355     1.6229911918712683E12    0.6392531592747274       -3.17556188477463        -0.4504549547372736
-0.038144760413786664     -0.06070265873073338     0.030835681634532784     1.7478243386541138E12    0.3831538369130836       -2.9104462913014535      -0.30369559989312456
-0.03641257482021627      -0.0607593055836374      0.03413323744718275      1.8199552751721323E12    0.4157336147629792       -3.0696564109616866      -0.31329166761664257
-0.03759338004776142      -0.0579741462263252      0.03189011300630299      2.0231211775009326E12    0.20821399795276205      -2.9611072921211306      -0.19223386764037872
-0.0344996550435208       -0.06041642509798423     0.037724697739207044     1.9709271436235522E12    0.42809747067946985      -3.2422501595514746      -0.3045512564951939
-0.033772857430010295     -0.057288385255018864    0.03907579351934394      2.298274595201876E12     0.19187120487940512      -3.3075689268430257      -0.17397773286717505
-0.03569385423484865      -0.05763126574067204     0.035488702333594586     2.170976837320668E12     0.20148561330482026      -3.135832629748929       -0.18287328862228172
-0.040953886671117795     -0.05981868474623094     0.025392535792492413     1.80266450729725E12      0.28686620291598475      -2.6454856391015533      -0.2528906507634091
-0.04179158406852601      -0.06183587385864505     0.023745734582363634     1.545335341471405E12     0.3897004512964182       -2.567530699605303       -0.3299615855051418
-0.040385293692954266     -0.06193235107733724     0.026504043062211505     1.582314040083087E12     0.41983599551346823      -2.7005602632611656      -0.3447021374879159
-0.04122616798599838      -0.0639611566446333      0.024858480330219562     1.3432413626313284E12    0.5181036997858582       -2.6224261143132224      -0.4299013254623652
-0.04262477300543674      -0.06385306297105914     0.02209672244057124      1.330534679473192E12     0.48283604987182305      -2.4905640384162155      -0.40974697240241464
-0.042062533818544995     -0.06598996221192933     0.023210706666563996     9.497898605887885E11     0.6066727542532199       -2.5452802436724427      -0.5178149655923546
-0.04345345348184998      -0.06587025208347326     0.020445499367115223     9.71101338942113E11      0.5662729986421994       -2.4145856555342924      -0.49224681145522764
-0.039814652382119835     -0.06404601740844351     0.027614519667849998     1.3828336593994482E12    0.5553561253205735       -2.7551990037188383      -0.44654742980205986
-0.04065870357079985      -0.06608643943062154     0.025970195413994895     9.773309168124867E11     0.6490572854849204       -2.676885645319203       -0.5398748710092257
-0.039841515189931266     -0.05920383857292903     0.027562356852789797     1.8771059375784028E12    0.26374752803766827      -2.7515688059954546      -0.2336779987137304
-0.03926892575000327      -0.06131750490403533     0.028671843342885747     1.668255770870912E12     0.40304427960132144      -2.805941251891664       -0.3247020065195193
-0.038721346315479147     -0.0585889923996271      0.029728215924059987     1.9275263159452754E12    0.23753012638326065      -2.8567760236686466      -0.2134590710060536
-0.04642909983904214      -0.06556190991369742     0.01442188033959485      7.440798536019297E11     0.48351286064397675      -2.1491176192077965      -0.4342176964321918
-0.04544389660114455      -0.06566766372038435     0.016432889814827538     8.149640322423818E11     0.5102376655806835       -2.2344090107993777      -0.4538854188033817
-0.046342449818727725     -0.06435224945948712     0.014599425351115143     1.0354368788238677E12    0.43186836353879193      -2.1543883681194935      -0.38380284700624573
-0.04535665204805841      -0.0644565167244599      0.016610169361211385     1.0955779066943959E12    0.45647202806879383      -2.2401251658059023      -0.4018850507417551
-0.04445201448208049      -0.06577044444364295     0.018440762824000995     8.608131626044408E11     0.5378243782467576       -2.3228983562415424      -0.4732284571443935
-0.04436417539622263      -0.06455781090600435     0.018617776905248393     1.1870409435503591E12    0.48193760032816324      -2.329059917342895       -0.41964257044708647
-0.04625574785123118      -0.06314258900527679     0.014776946184911849     1.1905564288356162E12    0.37915467631824606      -2.1595110011392697      -0.3364778547114101
-0.04526935554779015      -0.06324536972853545     0.016787424729871644     1.2544387939083816E12    0.4016372004415434       -2.2456932049205065      -0.35297453981123905
-0.046168993936552515     -0.061932928551066496    0.014954442840984968     1.3368332389359102E12    0.32537179898233953      -2.164485518267125       -0.29224271954768527