% Model:              wentai_test_m31.mph
% Version:            COMSOL 5.5.0.292
% Date:               Jan 3 2022, 17:32
% Dimension:          3
% Nodes:              22177
% Expressions:        4
% Description:        表面
% X                       Y                        Z                        Color                    DeformX                  DeformY                  DeformZ
-0.04851473881663425      -0.06529392956856216     0.010108330297943599     2.748189423196794E11     0.3184968555809376       -1.4703307393939045      -0.2939884685834842
-0.048514721764346014     -0.06353093245825568     0.010108366803403778     4.240226677455795E11     0.264497886185512        -1.4679145240611917      -0.2424332392735975
-0.0487596548365826       -0.06529260895154608     0.009293285712236105     2.3650959778674237E11    0.3139832042743902       -1.4484474690029923      -0.29247062571307686
-0.04875965131906641      -0.06353012398785107     0.009293312779510773     3.789523996308582E11     0.26049676609861433      -1.4465640989215705      -0.24110333301801148
-0.04851471445622633      -0.061767935347949186    0.010108382448604845     5.3893036333861145E11    0.21018568941624644      -1.465506313134981       -0.1956413596041457
-0.04875965754571876      -0.061767639024156044    0.009293318986526324     4.644845448849253E11     0.2066971005489982       -1.4446887332466505      -0.1944993899633809
-0.04851471689227521      -0.060004938237642705    0.0101083772335468       6.61432309022722E11      0.15556026527314074      -1.4631061066152726      -0.1536128295751287
-0.04875457941268432      -0.0652923126277529      0.008479800673698218     2.244301757282724E11     0.3099331039681026       -1.419451513455984       -0.29187407958010897
-0.04875458942994017      -0.06353033981066938     0.008479818302787373     3.484088379949127E11     0.2569591970119762       -1.4181009886258527      -0.24069472349986484
-0.0484995125449394       -0.06529304059718265     0.007667875182329935     2.5462316425544955E11    0.3063465546620748       -1.383342872752879       -0.2921988301845806
-0.048499512669747995     -0.05999515833337221     0.007667875434681681     6.183396477759681E11     0.14809746467606874      -1.3824573846014176      -0.1525738341857161
-0.04849951262814513      -0.061761119087975706    0.007667875350564432     4.83798701129109E11      0.20055696787264912      -1.382413905345923       -0.19405586316393403
-0.04875458945849632      -0.05999841830146241     0.008479818490634556     5.7418727925813E11       0.1503376525399318       -1.416689784826277       -0.1525207361115994
-0.048754589444218246     -0.06176437905606591     0.008479818396710965     4.354874186439155E11     0.20350332804324323      -1.4172260657397409      -0.19407791162836366
-0.04849951258654226      -0.06352707984257917     0.007667875266447183     3.761010273556766E11     0.2533066645346511       -1.3827090680630767      -0.24059752849688884
-0.04875965753267205      -0.060001678269552564    0.009293319090256262     5.804944626858118E11     0.1528252527389558       -1.4435726921642285      -0.1528670679080703
-0.04851471689227521      -0.05725706781259607     0.0101083772335468       6.999426151388544E11     0.07039146516265236      -1.4601806011481244      -0.09640876046192554
-0.048759657532672064     -0.057253807844505934    0.009293319090256238     5.996718369353218E11     0.06920635198559995      -1.4415360089548401      -0.0961513547722017
-0.048514716892275205     -0.054509197387549405    0.0101083772335468       7.234997442452456E11     -0.014780975565013753    -1.458429685609338       -0.04219955307624236
-0.04875965753267205      -0.05450593741945927     0.00929331909025621      6.132345647413169E11     -0.014416189384933708    -1.4406739156738135      -0.04243050336385311
-0.048514716892275205     -0.05176132696250277     0.0101083772335468       7.517314365241553E11     -0.09995705690985761     -1.4578533599989136      0.009014792581920767
-0.048754589458496325     -0.05725054787641576     0.008479818490634504     6.024973280103395E11     0.06826865114370842      -1.4155419238746485      -0.0962933789530654
-0.048499512669748        -0.0517216157071306      0.00766787543468168      7.831048764564727E11     -0.09474390378470786     -1.3824563665505205      0.010384065524116026
-0.048499512669748        -0.054479463249211144    0.007667875434681681     7.081866224747871E11     -0.013937779359088288    -1.3820912699227224      -0.04162773751637823
-0.048754589458496325     -0.051734852792254676    0.00847981849063452      6.330222712773796E11     -0.09643001640471287     -1.415009999058919       0.009228049773854705
-0.048754589458496325     -0.05449270033433522     0.00847981849063451      6.188401645512982E11     -0.014151181827821888    -1.4150932434777355      -0.042378916158213785
-0.048499512669748        -0.05723731079129168     0.00766787543468168      6.736472789230647E11     0.06700934346117057      -1.3820916092730213      -0.09594703741965557
-0.04875965753267206      -0.05174808987737872     0.009293319090256226     6.328554057837664E11     -0.09816773411309612     -1.4401423302083836      0.008771625459789618
-0.048499512669748        -0.04344538320562743     0.007667875434681681     4.0462043906545844E11    -0.3372665554426964      -1.378933361284188       0.19775545173208461
-0.048499512669748        -0.046204127372795153    0.007667875434681681     5.4949465435844226E11    -0.25617267369982333     -1.3797340754904532      0.12729553081854905
-0.048754589458496304     -0.04346860144873633     0.008479818490632321     3.613090668880491E11     -0.34211054928122064     -1.4146178281096142      0.19598970129119125
-0.048754589458496325     -0.04622734561590407     0.008479818490632353     4.7221315848255E11       -0.2600143734521994      -1.4144338792910112      0.12559542216281258
-0.048499512669748        -0.04896287153996288     0.00766787543468168      6.635372276191545E11     -0.17533178981382708     -1.3809084105792306      0.06483840208255952
-0.04875458945849631      -0.04898608978307179     0.00847981849063238      5.556736207142523E11     -0.17817119548005506     -1.4146235513549197      0.0632039352119799
-0.048759657532672036     -0.043491819691845235    0.009293319090254028     3.57750013550713E11      -0.3474132289294244      -1.4428702163861984      0.19570447753024656
-0.048759657532672064     -0.04625056385901299     0.00929331909025409      4.7269509236672455E11    -0.2643147590142551      -1.4417016045427267      0.12537584018702472
-0.048514716892275205     -0.04351503793495414     0.0101083772335468       4.3552379927301263E11    -0.35317459438730786     -1.4636905261139408      0.1968997804492505
-0.048514716892275205     -0.0490125639533199      0.0101083772335468       6.471424890161367E11     -0.1849179638030386      -1.4591563387791902      0.06447578697117268
-0.048759657532672064     -0.04899932686819586     0.009293319090255159     5.417657949575323E11     -0.18151877709735773     -1.4406005957465222      0.06349006537347816
-0.0485147168922752       -0.04626380094413702     0.0101083772335468       5.501490521229193E11     -0.2693238096288553      -1.4611020608175327      0.12710411626028262
-0.048499512669738        -0.0381431649117068      0.00766787543467168      1.617228994452598E11     -0.4939545273644647      -1.378797651714699       0.3708457501126671
-0.04849951266974134      -0.039910571009680346    0.007667875434675014     1.527709482276305E11     -0.441337550102332       -1.3783856425690013      0.30818920614612666
-0.04875458338242887      -0.03819984180662221     0.008478867716049884     1.224479712793341E11     -0.4977796450684775      -1.4158994371293225      0.3683945518237274
-0.048754586420463146     -0.03995200176076689     0.008479343103340566     1.2586217685838528E11    -0.44586834002123765     -1.4152776754449492      0.30580831759811494
-0.04849951266974467      -0.041677977107653884    0.0076678754346783465    2.6175952818337662E11    -0.38910822612840923     -1.3784308790921638      0.25049244001926585
-0.04875458945849741      -0.04170416171491155     0.008479818490631246     2.4262374320647693E11    -0.39434468826220764     -1.4151131594294366      0.248181861212182
-0.0487596514566046       -0.03822602641387987     0.009292368315671588     9.581705690475272E10     -0.5033331486094542      -1.4460003563198385      0.36854788816009776
-0.04875965753266982      -0.03996294022419568     0.00929331909024962      1.3227279193522276E11    -0.4521275157771072      -1.4451688420967899      0.30603196367541313
-0.048514716892265206     -0.0382217187334798      0.0101083772335368       1.3123106728517052E11    -0.5106150379873949      -1.4691004092862479      0.37130575912177805
-0.04851471689227187      -0.04175059820112936     0.010108377233543466     2.754970399102071E11     -0.4063104672227837      -1.4657799855719715      0.24990341784417822
-0.048759657532670926     -0.04172737995802046     0.009293319090251825     2.2735400967182217E11    -0.4000982348376559      -1.4441626117751252      0.2483023761882058
-0.048514716892268536     -0.03998615846730458     0.01010837723354013      1.6825045084989355E11    -0.4587906150894793      -1.4675832799627402      0.3080387440683541
-0.02194908778754411      -0.0603934520802086      0.060095426615922515     1.606262870049764E12     0.5110506808402392       -3.0824088191194208      -0.2876012273066335
-0.021216005879843233     -0.0622920453783423      0.06134316011669001      1.3185764425976387E12    0.7005856690347069       -3.101662263385789       -0.3708127238229559
-0.021216005879840554     -0.059833628181012344    0.06134316011669157      1.5123768620814941E12    0.46642558572675374      -3.1061835950764993      -0.26991849942215373
-0.020480304092791092     -0.061732221479146046    0.06258927235034163      1.2468942107288928E12    0.6585353741302313       -3.1216619637699012      -0.35300329445180023
-0.02048030409279076      -0.064190638676476       0.06258927235033918      1.0457001514553667E12    0.8910407151866108       -3.117327256918305       -0.4612261645747095
-0.019741982426390033     -0.06363081477727973     0.06383376331687333      9.35452506737313E11      0.851565220491145        -3.1335518817294505      -0.443290033716878
-0.019741982426386702     -0.0660892319746097      0.06383376331687         6.115770119566503E11     1.082415819295951        -3.12940379971697        -0.5588415495618945
-0.020480304092791418     -0.059273804281816084    0.06258927235034405      1.454729702218815E12     0.41886135313962436      -3.12671074367077        -0.2513946253884564
-0.01974198242639337      -0.061172397579949786    0.06383376331687668      1.146915946384149E12     0.6135459417521119       -3.1384140367912052      -0.33435271893142704
-0.0197419824263967       -0.05871398038261981     0.06383376331688         1.3383075975968457E12    0.36835798307885115      -3.143990264902233       -0.23202960520554153
-0.022090253392744327     -0.05853929740075689     0.05985445729791768      1.6833379930450466E12    0.33452886511223967      -3.080386477499469       -0.214533714763755
-0.021357677983842128     -0.057979473501560644    0.06110250223915622      1.6061116581147817E12    0.2855637749798403       -3.105017154677764       -0.19622624537006939
-0.02062248269559434      -0.057419649602364356    0.06234892591327818      1.5548266516059402E12    0.23365954737379702      -3.12640020449325        -0.17707762982716613
-0.022231321078370364     -0.056685142721305176    0.0596134281551018       1.774745998807795E12     0.15770072019188786      -3.0776220692725023      -0.14396943015601782
-0.021499252168269516     -0.056125318822108916    0.06086178453680983      1.7043710977427944E12    0.10439563504057461      -3.1031086476720127      -0.12503721925312627
-0.022372290844422226     -0.05483098804185345     0.0593723391874749       1.8637883099211948E12    -0.019433753920816275    -3.0741155944385206      -0.07590837348342196
-0.021499252168270165     -0.0530189564540783      0.06086178453680871      1.7314062868975073E12    -0.19949117117132473     -3.1051581166344224      -0.008822734297114236
-0.020622482695594663     -0.05431328723433376     0.062348925913277634     1.581874438596804E12     -0.07680715035420464     -3.1297479631940788      -0.056717592727271685
-0.0197419824263967       -0.05560761801458921     0.06383376331687998      1.382797007531624E12     0.05131139383474698      -3.1486363133414805      -0.10752401596176467
-0.02062248269559499      -0.051206924866303155    0.06234892591327707      1.614840988767954E12     -0.3882503255644713      -3.1309685611046287      0.06342272874976974
-0.0197419824263967       -0.05250125564655862     0.06383376331688         1.410759905435978E12     -0.26671167289162206     -3.1511552009904493      0.016761857659159184
-0.019741982426396697     -0.04939489327852801     0.06383376331687998      1.4495079428916323E12    -0.585711217100256       -3.151546927849141       0.14082801565723002
-0.02248663292356711      -0.062360830919639364    0.0591766222803309       1.4770011427747153E12    0.6846916293881765       -3.0601320156183522      -0.36181200790292833
-0.021755514520240153     -0.06426049903834471     0.060425487055779034     1.182262375764248E12     0.8713622275323556       -3.0818748638974096      -0.45126622651753406
-0.02302275315468914      -0.06432820975907014     0.0582569524632358       1.3296425409922534E12    0.8474695200600963       -3.036889692730104       -0.44015982061517145
-0.0222935982557361       -0.06622895269834711     0.05950694851336455      9.08410682403282E11      1.0312757281539868       -3.06112194502185        -0.5358567613280605
-0.023557448480910206     -0.06629558859850092     0.057336417164637214     1.0108406581398235E12    0.9993843528559988       -3.012681850454676       -0.5226446654433631
-0.0210217762375616       -0.06616016715705005     0.061672730564108824     8.010687128473921E11     1.058952883633971        -3.1000292614426144      -0.5479223893675709
-0.024398068742739133     -0.06343367877647235     0.05588245062065203      1.4959492321967505E12    0.7356409643553866       -2.980198312382776       -0.38895788214319826
-0.025216671741357926     -0.06637295842436115     0.05445855008047291      1.0616015420274382E12    0.9496595243266446       -2.9372951499859123      -0.5081198439548573
-0.026050254555248276     -0.06349583570295415     0.05300035599004049      1.5218409267560872E12    0.6990145449485398       -2.9000780083673536      -0.3770131266421412
-0.025235122770220594     -0.060571768954443765    0.05442636205744937      1.7764318604035864E12    0.4787527928930968       -2.9444313105978024      -0.27158166772537834
-0.026880271134791165     -0.06061871298154715     0.051540039880390597     1.807810879890292E12     0.4552247826087573       -2.859577403035721       -0.2622169782117699
-0.0260686105633546       -0.0577098591324152      0.05296815147502925      2.0331432567781433E12    0.22871983846912977      -2.905380845099757       -0.1705160221899035
-0.026861952849655736     -0.06641990245146451     0.05157235768119882      1.0769196561760342E12    0.8961714803900649       -2.8539758339332617      -0.49377492883366825
-0.027688498215607517     -0.0635275668306791      0.05010993604431918      1.545358295136858E12     0.6586249101344672       -2.812025088768044       -0.3652482775084006
-0.02849329180580365      -0.06643642067981104     0.04867783996681495      1.1362255460660383E12    0.8389202210462595       -2.7627239022967243      -0.4796099200797956
-0.023331761865893797     -0.0594989210976108      0.05772536633664877      1.7613242223673584E12    0.4117380921587659       -3.030948531524704       -0.2445679038444288
-0.023865627756766948     -0.06146629993704158     0.05680434121940215      1.6281016359826116E12    0.579121057195085        -3.0060561816473292      -0.31469437693583935
-0.02470493612449729      -0.05860439011501299     0.05534960795635101      1.8867797339770193E12    0.317627811368396        -2.9719392068514816      -0.20553950213885208
-0.023612066173036007     -0.05579061173870736     0.05724220012422757      1.906565173227175E12     0.07226562035839922      -3.0235054592113215      -0.10904649931546517
-0.023471962979251994     -0.05764476641815909     0.0574838131428437       1.8143748241428635E12    0.24215502085475873      -3.0275980286715205      -0.17555558761237633
-0.02484417274601346      -0.05675023543556128     0.05510747088674568      1.94413944411438E12      0.15498348448838123      -2.9672605427650662      -0.14058238221762565
-0.02308484021926819      -0.052313802752662834    0.05815023316026935      1.8736351422252559E12    -0.25240326482009895     -3.046955072388092       0.014384570850063371
-0.022214868526023657     -0.05050177116488769     0.059641550589873        1.7481874261887185E12    -0.4346975119366647      -3.0800535103699644      0.08359248706446204
-0.021341166036256003     -0.04868973957711252     0.061130564046611185     1.6318545404018096E12    -0.6256934961958687      -3.1079198706261404      0.15796022713943697
-0.023794868429390364     -0.0497966174634722      0.056926606150665006     1.8879625706596787E12    -0.47209781887990726     -3.0153149621409137      0.1041443843574519
-0.02292796371905336      -0.047984585875697046    0.05841979566053851      1.7351791672719878E12    -0.6566288958625304      -3.0504693159087557      0.1754745775999415
-0.024502375474788753     -0.04727943217428155     0.0557014581586619       1.8519864988092869E12    -0.6785174161002413      -2.9791952636969863      0.19337106703874363
-0.024320218469899176     -0.05327342644951675     0.05601745181372449      1.916587058168798E12     -0.15391835822308608     -2.9926384920456846      -0.020398657600090086
-0.02502584960203856      -0.0507562411603261      0.05479118252082262      1.9200989191216494E12    -0.36682737996509707     -2.9572919366832973      0.0677160532891882
-0.025547927964893847     -0.054233050146370664    0.05388008029294508      1.952508251036562E12     -0.06441496177530671     -2.932687130484221       -0.05357964312036084
-0.019741982426393367     -0.04546470473413347     0.06383376331687665      1.101652123140138E12     -0.9787762997718831      -3.14657657999837        0.3076569314339729
-0.021341166036255348     -0.044759551032718       0.06113056404660931      1.2703848870607722E12    -0.9976687153974498      -3.101322073062097       0.32404777012997904
-0.01974198242639003      -0.04153451618973893     0.06383376331687332      7.901350318857375E11     -1.3484865033855165      -3.1397571870310395      0.4977265726452771
-0.02134116603625469      -0.04082936248832346     0.061130564046607425     9.441347057021526E11     -1.3462890555410376      -3.092875230381496       0.5133760385550825
-0.019741982426386702     -0.0376043276453444      0.06383376331687         6.301091796114863E11     -1.6948418279411566      -3.131088748947153       0.711036939291143
-0.022927963719055377     -0.044054397331302515    0.058419795660538065     1.3222976957728467E12    -1.007514251594066       -3.0422440686314403      0.3408207478042828
-0.03402589848881872      -0.06632962429826178     0.03860622638981785      9.450018649905898E11     0.6486178945806661       -2.420084169219933       -0.44560560945008315
-0.032200314321971416     -0.06631406738501108     0.041974364551011244     1.0024285833633335E12    0.7034952031122619       -2.53769845807211        -0.4530072833537123
-0.03329710056009055      -0.06320158445529642     0.03995627316511136      1.325795340982318E12     0.49504730775000655      -2.4696844133505147      -0.32648514417533064
-0.0314640676310715       -0.06321160539559595     0.04332001691669889      1.4084012427718306E12    0.5377509177324593       -2.58647026840391        -0.3330849996783064
-0.030356112094299722     -0.06634966617886082     0.045331569076676945     1.0748808971835319E12    0.7669293119341263       -2.6519117024310397      -0.4643420535636164
-0.029612416641228056     -0.06327278204299593     0.046672827032758706     1.485380560669893E12     0.5890113280051805       -2.6998550789640583      -0.34361795148755714
-0.032565264274899766     -0.060073544612331053    0.041304659889689094     1.5811677187951948E12    0.32297224727062923      -2.5182738305278107      -0.21867980778088178
-0.030724782583708976     -0.06010914340618083     0.04466400923167074      1.6699997145169434E12    0.3535021587039387       -2.634231251782424       -0.22447784488320416
-0.031830389633246386     -0.0569455047693657      0.04265138656355106      1.8201736988021829E12    0.13239271314253398      -2.56585242075182        -0.12218960026673653
-0.028812440437810467     -0.060363928193863985    0.048107676527896756     1.7477140635290764E12    0.4034830232168444       -2.7495535194387437      -0.24204008626722812
-0.028009030743772655     -0.057455074344732036    0.04954053378160201      1.985794320029603E12     0.1948499018145905       -2.797503087709786       -0.1517925643216633
-0.029929623767069927     -0.05720028955704888     0.04610161214444262      1.9145912121360288E12    0.16274086003905863      -2.684326946260475       -0.13568375701394103
-0.031143366534992507     -0.05375681043139397     0.04390392191010266      1.7786983599916611E12    -0.07521294269424611     -2.6087694280766263      -0.02500524951106704
-0.029235392881482053     -0.05401159521907715     0.04735007773875441      1.861478626768918E12     -0.06394244210980597     -2.72612411650678        -0.036857035897551994
-0.02730759207085079      -0.0542663800067603      0.050784929623673994     1.9294142496056138E12    -0.05091104664635855     -2.838180420877592       -0.05132347284455475
-0.030453723256724335     -0.050568116093422225    0.04515499213951263      1.7812431717247407E12    -0.2949393885761512      -2.65079700876888        0.0762943660922897
-0.028538541815879892     -0.0508229008811054      0.04859707821592458      1.8657314633004116E12    -0.3027465343037955      -2.767031860120534       0.06608495006652429
-0.029761459798441886     -0.04737942175545048     0.04640459725178099      1.8177825216731404E12    -0.5267866245031813      -2.691935162828583       0.18170924654333373
-0.02627152770512612      -0.047312762034671205    0.05261187337351411      1.8588477161910115E12    -0.6244991316765822      -2.8897761992425415      0.1865945748373459
-0.02679025777018572      -0.050789571020715754    0.05169881479361319      1.888436860237489E12     -0.3330662801887935      -2.865329049652761       0.06545589232639239
-0.028024555813010495     -0.04734609189506084     0.049512919737887136     1.8408218644923071E12    -0.5739222011442289      -2.794022832286407       0.18270730133887594
-0.026207795522914384     -0.03758166108350667     0.05272434496234215      1.0435561411884083E12    -1.3467796057011145      -2.8776269500194123      0.641881118210122
-0.025640878961918474     -0.04081425144709831     0.05371763954747478      1.162715791944245E12     -1.1488397423754853      -2.9144456034269846      0.46938494349991744
-0.02407613111516751      -0.0375817533779783      0.05644124481019075      9.51401915665346E11      -1.4710315903434719      -2.982721645631907       0.6616906566820475
-0.023502825811301097     -0.040818075354640417    0.05743098199521077      1.0136718979151222E12    -1.2516800209060999      -3.0139641315558645      0.4897592900832926
-0.02507240561254326      -0.044046841810689935    0.05471001061291469      1.4349539483495059E12    -0.9260856791751944      -2.948301707986176       0.3198815931094581
-0.021920860082991614     -0.03758930889859087     0.06014438426170002      8.257628024652834E11     -1.5870523310901523      -3.067208911941153       0.6847425970423877
-0.02683639054376656      -0.04408017167107959     0.05161739568370519      1.4716985165702434E12    -0.856251850919521       -2.85595165627387        0.31075356035373525
-0.027399696594027703     -0.04084758130748794     0.05062199447420355      1.1643067218207935E12    -1.0631903702877976      -2.819164564456816       0.45790537018986954
-0.028584251352536876     -0.044113501531469215    0.0485154119040165       1.44874575960478E12      -0.7898593765551534      -2.7572673020598737      0.30451474630094016
-0.03924196273861451      -0.06615968373954978     0.028723965609407893     7.595488375091039E11     0.5118148657038204       -2.073606134844802       -0.41217196087762503
-0.037521489201596474     -0.06624086503730041     0.03202726493033518      7.934690101616885E11     0.5537361968242609       -2.1903852214722894      -0.42607749684855467
-0.03869428797740436      -0.06343117123514158     0.029780299168901087     1.0790864637543097E12    0.4021817242213801       -2.110862195838731       -0.3142512956160602
-0.03696795841211015      -0.0635000853104689      0.03308072673568971      1.1322333259137444E12    0.4351658792243015       -2.2280078547337254      -0.32474546954678557
-0.03578280111833121      -0.0662975118902044      0.0353213518571385       8.553533180157617E11     0.599337206449876        -2.3058778995973324      -0.4372220463727073
-0.035223414300568696     -0.06354446494094958     0.036371941908354355     1.197922070030787E12     0.4718297127323976       -2.3438671051262756      -0.3324786570307339
-0.038144760413786664     -0.06070265873073338     0.030835681634532784     1.2900608212177734E12    0.28280402244348357      -2.1481865480642943      -0.2241562760877776
-0.03641257482021627      -0.0607593055836374      0.03413323744718275      1.3433003219731619E12    0.30685100132888593      -2.2656987792267955      -0.23123908797829862
-0.03759338004776142      -0.0579741462263252      0.03189011300630299      1.4932561070066404E12    0.1536817603701307       -2.1855791915214926      -0.14188690229277723
-0.0344996550435208       -0.06041642509798423     0.037724697739207044     1.4547319391486152E12    0.3159767045032643       -2.3930894031693484      -0.22478783215162776
-0.033772857430010295     -0.057288385255018864    0.03907579351934394      1.6963455343301562E12    0.141619222625413        -2.4413008742591344      -0.12841213615282515
-0.03569385423484865      -0.05763126574067204     0.035488702333594586     1.6023876654303325E12    0.14871557170127864      -2.3145431311823588      -0.13497790349483874
-0.040953886671117795     -0.05981868474623094     0.025392535792492413     1.3305380885455125E12    0.21173457831285009      -1.9526203524183767      -0.18665738506785923
-0.04179158406852601      -0.06183587385864505     0.023745734582363634     1.140604656651757E12     0.2876360473460743       -1.8950821827977322      -0.24354307498885544
-0.040385293692954266     -0.06193235107733724     0.026504043062211505     1.1678984580035786E12    0.309878949026807        -1.9932706702452359      -0.25442300621304986
-0.04122616798599838      -0.0639611566446333      0.024858480330219562     9.914400532413096E11     0.3824098735997924       -1.935600226981694       -0.3173081211383592
-0.04262477300543674      -0.06385306297105914     0.02209672244057124      9.82061310912292E11      0.35637898914317506      -1.8382734566894205      -0.30243228911962217
-0.042062533818544995     -0.06598996221192933     0.023210706666563996     7.010353732003997E11     0.44778227093665446      -1.8786592272304858      -0.382196760273439
-0.04345345348184998      -0.06587025208347326     0.020445499367115223     7.167652738886105E11     0.4179634037041526       -1.7821941740934422      -0.36332502746015943
-0.039814652382119835     -0.06404601740844351     0.027614519667849998     1.0206629389463184E12    0.40990571149046373      -2.033599264387377       -0.3295945314829718
-0.04065870357079985      -0.06608643943062154     0.025970195413994895     7.213632956472871E11     0.4790660916032104       -1.9757965474809387      -0.3984790714125942
-0.039841515189931266     -0.05920383857292903     0.027562356852789797     1.3854829537452876E12    0.194670794475937        -2.0309198327346154      -0.17247661808078796
-0.03926892575000327      -0.06131750490403533     0.028671843342885747     1.2313316402429834E12    0.29748506347380865      -2.0710518761290317      -0.23966100478605842
-0.038721346315479147     -0.0585889923996271      0.029728215924059987     1.4226979949156074E12    0.17531985516169718      -2.1085727791023205      -0.15755312382242728
-0.04642909983904214      -0.06556190991369742     0.01442188033959485      5.492017966360024E11     0.35687853995201757      -1.5862534806398643      -0.3204940139959868
-0.04544389660114455      -0.06566766372038435     0.016432889814827538     6.015210713399923E11     0.3766039912121104       -1.649206650615928       -0.33501066622054765
-0.046342449818727725     -0.06435224945948712     0.014599425351115143     7.642510295099257E11     0.3187599825696898       -1.5901437953122584      -0.2832830537102276
-0.04535665204805841      -0.0644565167244599      0.016610169361211385     8.086408357895458E11     0.3369198301964644       -1.6534257174058877      -0.29662944218003057
-0.04445201448208049      -0.06577044444364295     0.018440762824000995     6.353620961263494E11     0.39696561246282197      -1.7145202151004537      -0.3492876707086051
-0.04436417539622263      -0.06455781090600435     0.018617776905248393     8.761492677457244E11     0.35571584781385773      -1.7190680340079791      -0.3097361829133302
-0.04625574785123118      -0.06314258900527679     0.014776946184911849     8.787440306940413E11     0.27985226105469874      -1.5939247863501527      -0.24835270225903827
-0.04526935554779015      -0.06324536972853545     0.016787424729871644     9.258953001463107E11     0.29644650504815506      -1.657535460561348       -0.2605288269740834